 Entering Link 1 = C:\G03W\l1.exe PID=      4304.
  
 Copyright (c) 1988,1990,1992,1993,1995,1998,2003, Gaussian, Inc.
                  All Rights Reserved.
  
 This is the Gaussian(R) 03 program.  It is based on the
 the Gaussian(R) 98 system (copyright 1998, Gaussian, Inc.),
 the Gaussian(R) 94 system (copyright 1995, Gaussian, Inc.),
 the Gaussian 92(TM) system (copyright 1992, Gaussian, Inc.),
 the Gaussian 90(TM) system (copyright 1990, Gaussian, Inc.),
 the Gaussian 88(TM) system (copyright 1988, Gaussian, Inc.),
 the Gaussian 86(TM) system (copyright 1986, Carnegie Mellon
 University), and the Gaussian 82(TM) system (copyright 1983,
 Carnegie Mellon University). Gaussian is a federally registered
 trademark of Gaussian, Inc.
  
 This software contains proprietary and confidential information,
 including trade secrets, belonging to Gaussian, Inc.
  
 This software is provided under written license and may be
 used, copied, transmitted, or stored only in accord with that
 written license.
  
 The following legend is applicable only to US Government
 contracts under DFARS:
  
                    RESTRICTED RIGHTS LEGEND
  
 Use, duplication or disclosure by the US Government is subject
 to restrictions as set forth in subparagraph (c)(1)(ii) of the
 Rights in Technical Data and Computer Software clause at DFARS
 252.227-7013.
  
 Gaussian, Inc.
 Carnegie Office Park, Building 6, Pittsburgh, PA 15106 USA
  
 The following legend is applicable only to US Government
 contracts under FAR:
  
                    RESTRICTED RIGHTS LEGEND
  
 Use, reproduction and disclosure by the US Government is subject
 to restrictions as set forth in subparagraph (c) of the
 Commercial Computer Software - Restricted Rights clause at FAR
 52.227-19.
  
 Gaussian, Inc.
 Carnegie Office Park, Building 6, Pittsburgh, PA 15106 USA
  
  
 ---------------------------------------------------------------
 Warning -- This program may not be used in any manner that
 competes with the business of Gaussian, Inc. or will provide
 assistance to any competitor of Gaussian, Inc.  The licensee
 of this program is prohibited from giving any competitor of
 Gaussian, Inc. access to this program.  By using this program,
 the user acknowledges that Gaussian, Inc. is engaged in the
 business of creating and licensing software in the field of
 computational chemistry and represents and warrants to the
 licensee that it is not a competitor of Gaussian, Inc. and that
 it will not use this program in any manner prohibited above.
 ---------------------------------------------------------------
  

 Cite this work as:
 Gaussian 03, Revision B.05,
 M. J. Frisch, G. W. Trucks, H. B. Schlegel, G. E. Scuseria, 
 M. A. Robb, J. R. Cheeseman, J. A. Montgomery, Jr., T. Vreven, 
 K. N. Kudin, J. C. Burant, J. M. Millam, S. S. Iyengar, J. Tomasi, 
 V. Barone, B. Mennucci, M. Cossi, G. Scalmani, N. Rega, 
 G. A. Petersson, H. Nakatsuji, M. Hada, M. Ehara, K. Toyota, 
 R. Fukuda, J. Hasegawa, M. Ishida, T. Nakajima, Y. Honda, O. Kitao, 
 H. Nakai, M. Klene, X. Li, J. E. Knox, H. P. Hratchian, J. B. Cross, 
 C. Adamo, J. Jaramillo, R. Gomperts, R. E. Stratmann, O. Yazyev, 
 A. J. Austin, R. Cammi, C. Pomelli, J. W. Ochterski, P. Y. Ayala, 
 K. Morokuma, G. A. Voth, P. Salvador, J. J. Dannenberg, 
 V. G. Zakrzewski, S. Dapprich, A. D. Daniels, M. C. Strain, 
 O. Farkas, D. K. Malick, A. D. Rabuck, K. Raghavachari, 
 J. B. Foresman, J. V. Ortiz, Q. Cui, A. G. Baboul, S. Clifford, 
 J. Cioslowski, B. B. Stefanov, G. Liu, A. Liashenko, P. Piskorz, 
 I. Komaromi, R. L. Martin, D. J. Fox, T. Keith, M. A. Al-Laham, 
 C. Y. Peng, A. Nanayakkara, M. Challacombe, P. M. W. Gill, 
 B. Johnson, W. Chen, M. W. Wong, C. Gonzalez, and J. A. Pople, 
 Gaussian, Inc., Pittsburgh PA, 2003.
 
 **********************************************
 Gaussian 03:  x86-Win32-G03RevB.05  8-Nov-2003
                  23-Sep-2020 
 **********************************************
 %chk=HF3-21G.chk
 %mem=6MW
 %nproc=1
 Will use up to    1 processors via shared memory.
 ------------------------------------
 # opt b3lyp/3-21g* geom=connectivity
 ------------------------------------
 1/14=-1,18=20,26=3,38=1,57=2/1,3;
 2/9=110,17=6,18=5,40=1/2;
 3/5=5,7=1,11=2,16=1,25=1,30=1,74=-5/1,2,3;
 4//1;
 5/5=2,38=5/2;
 6/7=2,8=2,9=2,10=2,28=1/1;
 7//1,2,3,16;
 1/14=-1,18=20/3(1);
 99//99;
 2/9=110/2;
 3/5=5,7=1,11=2,16=1,25=1,30=1,74=-5/1,2,3;
 4/5=5,16=3/1;
 5/5=2,38=5/2;
 7//1,2,3,16;
 1/14=-1,18=20/3(-5);
 2/9=110/2;
 6/7=2,8=2,9=2,10=2,19=2,28=1/1;
 99/9=1/99;
 -------------------
 Title Card Required
 -------------------
 Symbolic Z-matrix:
 Charge =  0 Multiplicity = 1
 C
 H                    1    B1
 H                    1    B2       2    A1
 C                    1    B3       3    A2       2    D1       0
 H                    4    B4       1    A3       3    D2       0
 H                    4    B5       1    A4       3    D3       0
 C                    4    B6       1    A5       3    D4       0
 H                    7    B7       4    A6       1    D5       0
 H                    7    B8       4    A7       1    D6       0
 O                    7    B9       4    A8       1    D7       0
 H                    10   B10      7    A9       4    D8       0
 C                    1    B11      4    A10      7    D9       0
 H                    12   B12      1    A11      4    D10      0
 H                    12   B13      1    A12      4    D11      0
 H                    12   B14      1    A13      4    D12      0
       Variables:
  B1                    1.08652                  
  B2                    1.08652                  
  B3                    1.52799                  
  B4                    1.08578                  
  B5                    1.08578                  
  B6                    1.51836                  
  B7                    1.08935                  
  B8                    1.08935                  
  B9                    1.40397                  
  B10                   0.94655                  
  B11                   1.54                     
  B12                   1.07                     
  B13                   1.07                     
  B14                   1.07                     
  A1                  107.72353                  
  A2                  111.40632                  
  A3                  110.25617                  
  A4                  110.25623                  
  A5                  112.59269                  
  A6                  109.94249                  
  A7                  109.94275                  
  A8                  108.24678                  
  A9                  109.67179                  
  A10                 110.92829                  
  A11                 109.4712                   
  A12                 109.4712                   
  A13                 109.47123                  
  D1                 -122.46874                  
  D2                 -178.64569                  
  D3                  -61.02935                  
  D4                   60.16272                  
  D5                  -59.0259                   
  D6                   59.0208                   
  D7                  180.                       
  D8                  179.98236                  
  D9                 -180.                       
  D10                  59.89131                  
  D11                 179.89133                  
  D12                 -60.10868                  
 
     3 tetrahedral angles replaced.

 GradGradGradGradGradGradGradGradGradGradGradGradGradGradGradGradGradGrad
 Berny optimization.
 Initialization pass.
                           ----------------------------
                           !    Initial Parameters    !
                           ! (Angstroms and Degrees)  !
 --------------------------                            --------------------------
 ! Name  Definition              Value          Derivative Info.                !
 --------------------------------------------------------------------------------
 ! R1    R(1,2)                  1.0865         estimate D2E/DX2                !
 ! R2    R(1,3)                  1.0865         estimate D2E/DX2                !
 ! R3    R(1,4)                  1.528          estimate D2E/DX2                !
 ! R4    R(1,12)                 1.54           estimate D2E/DX2                !
 ! R5    R(4,5)                  1.0858         estimate D2E/DX2                !
 ! R6    R(4,6)                  1.0858         estimate D2E/DX2                !
 ! R7    R(4,7)                  1.5184         estimate D2E/DX2                !
 ! R8    R(7,8)                  1.0894         estimate D2E/DX2                !
 ! R9    R(7,9)                  1.0894         estimate D2E/DX2                !
 ! R10   R(7,10)                 1.404          estimate D2E/DX2                !
 ! R11   R(10,11)                0.9466         estimate D2E/DX2                !
 ! R12   R(12,13)                1.07           estimate D2E/DX2                !
 ! R13   R(12,14)                1.07           estimate D2E/DX2                !
 ! R14   R(12,15)                1.07           estimate D2E/DX2                !
 ! A1    A(2,1,3)              107.7235         estimate D2E/DX2                !
 ! A2    A(2,1,4)              111.406          estimate D2E/DX2                !
 ! A3    A(2,1,12)             107.5964         estimate D2E/DX2                !
 ! A4    A(3,1,4)              111.4063         estimate D2E/DX2                !
 ! A5    A(3,1,12)             107.595          estimate D2E/DX2                !
 ! A6    A(4,1,12)             110.9283         estimate D2E/DX2                !
 ! A7    A(1,4,5)              110.2562         estimate D2E/DX2                !
 ! A8    A(1,4,6)              110.2562         estimate D2E/DX2                !
 ! A9    A(1,4,7)              112.5927         estimate D2E/DX2                !
 ! A10   A(5,4,6)              106.7453         estimate D2E/DX2                !
 ! A11   A(5,4,7)              108.3956         estimate D2E/DX2                !
 ! A12   A(6,4,7)              108.3959         estimate D2E/DX2                !
 ! A13   A(4,7,8)              109.9425         estimate D2E/DX2                !
 ! A14   A(4,7,9)              109.9427         estimate D2E/DX2                !
 ! A15   A(4,7,10)             108.2468         estimate D2E/DX2                !
 ! A16   A(8,7,9)              107.407          estimate D2E/DX2                !
 ! A17   A(8,7,10)             110.6506         estimate D2E/DX2                !
 ! A18   A(9,7,10)             110.6547         estimate D2E/DX2                !
 ! A19   A(7,10,11)            109.6718         estimate D2E/DX2                !
 ! A20   A(1,12,13)            109.4712         estimate D2E/DX2                !
 ! A21   A(1,12,14)            109.4712         estimate D2E/DX2                !
 ! A22   A(1,12,15)            109.4712         estimate D2E/DX2                !
 ! A23   A(13,12,14)           109.4712         estimate D2E/DX2                !
 ! A24   A(13,12,15)           109.4712         estimate D2E/DX2                !
 ! A25   A(14,12,15)           109.4712         estimate D2E/DX2                !
 ! D1    D(2,1,4,5)             61.0304         estimate D2E/DX2                !
 ! D2    D(2,1,4,6)            178.6467         estimate D2E/DX2                !
 ! D3    D(2,1,4,7)            -60.1612         estimate D2E/DX2                !
 ! D4    D(3,1,4,5)           -178.6457         estimate D2E/DX2                !
 ! D5    D(3,1,4,6)            -61.0294         estimate D2E/DX2                !
 ! D6    D(3,1,4,7)             60.1627         estimate D2E/DX2                !
 ! D7    D(12,1,4,5)           -58.8084         estimate D2E/DX2                !
 ! D8    D(12,1,4,6)            58.8079         estimate D2E/DX2                !
 ! D9    D(12,1,4,7)           180.0            estimate D2E/DX2                !
 ! D10   D(2,1,12,13)          -62.1967         estimate D2E/DX2                !
 ! D11   D(2,1,12,14)           57.8033         estimate D2E/DX2                !
 ! D12   D(2,1,12,15)          177.8033         estimate D2E/DX2                !
 ! D13   D(3,1,12,13)         -178.0212         estimate D2E/DX2                !
 ! D14   D(3,1,12,14)          -58.0212         estimate D2E/DX2                !
 ! D15   D(3,1,12,15)           61.9788         estimate D2E/DX2                !
 ! D16   D(4,1,12,13)           59.8913         estimate D2E/DX2                !
 ! D17   D(4,1,12,14)          179.8913         estimate D2E/DX2                !
 ! D18   D(4,1,12,15)          -60.1087         estimate D2E/DX2                !
 ! D19   D(1,4,7,8)            -59.0259         estimate D2E/DX2                !
 ! D20   D(1,4,7,9)             59.0208         estimate D2E/DX2                !
 ! D21   D(1,4,7,10)           180.0            estimate D2E/DX2                !
 ! D22   D(5,4,7,8)            178.7267         estimate D2E/DX2                !
 ! D23   D(5,4,7,9)            -63.2266         estimate D2E/DX2                !
 ! D24   D(5,4,7,10)            57.7526         estimate D2E/DX2                !
 ! D25   D(6,4,7,8)             63.2218         estimate D2E/DX2                !
 ! D26   D(6,4,7,9)           -178.7315         estimate D2E/DX2                !
 ! D27   D(6,4,7,10)           -57.7523         estimate D2E/DX2                !
 ! D28   D(4,7,10,11)          179.9824         estimate D2E/DX2                !
 ! D29   D(8,7,10,11)           59.4484         estimate D2E/DX2                !
 ! D30   D(9,7,10,11)          -59.4809         estimate D2E/DX2                !
 --------------------------------------------------------------------------------
 Trust Radius=3.00D-01 FncErr=1.00D-07 GrdErr=1.00D-06
 Number of steps in this run=  79 maximum allowed number of steps= 100.
 GradGradGradGradGradGradGradGradGradGradGradGradGradGradGradGradGradGrad

                          Input orientation:                          
 ---------------------------------------------------------------------
 Center     Atomic     Atomic              Coordinates (Angstroms)
 Number     Number      Type              X           Y           Z
 ---------------------------------------------------------------------
    1          6             0        0.000000    0.000000    0.000000
    2          1             0        0.000000    0.000000    1.086520
    3          1             0        1.034950    0.000000   -0.330763
    4          6             0       -0.763702   -1.200208   -0.557677
    5          1             0       -1.800129   -1.168984   -0.235541
    6          1             0       -0.772357   -1.168999   -1.642977
    7          6             0       -0.165999   -2.525972   -0.121187
    8          1             0        0.869687   -2.593513   -0.452064
    9          1             0       -0.165820   -2.593460    0.966073
   10          8             0       -0.933188   -3.559755   -0.681411
   11          1             0       -0.577131   -4.397458   -0.421729
   12          6             0       -0.637506    1.322287   -0.465556
   13          1             0       -1.650731    1.369135   -0.124852
   14          1             0       -0.086753    2.145643   -0.061012
   15          1             0       -0.617976    1.370815   -1.534277
 ---------------------------------------------------------------------
                    Distance matrix (angstroms):
                    1          2          3          4          5
     1  C    0.000000
     2  H    1.086520   0.000000
     3  H    1.086520   1.754939   0.000000
     4  C    1.527987   2.174194   2.174198   0.000000
     5  H    2.159275   2.520879   3.068104   1.085784   0.000000
     6  H    2.159275   3.068102   2.520877   1.085784   1.742754
     7  C    2.534320   2.804754   2.804770   1.518362   2.127175
     8  H    2.772549   3.138456   2.601603   2.149514   3.033823
     9  H    2.772513   2.601546   3.138418   2.149517   2.478704
    10  O    3.742595   4.082680   4.082692   2.368860   2.581894
    11  H    4.455174   4.684606   4.684519   3.205573   3.457375
    12  C    1.540000   2.136305   2.136287   2.527329   2.758809
    13  H    2.148263   2.463101   3.021558   2.752396   2.544920
    14  H    2.148263   2.434777   2.436138   3.449588   3.735354
    15  H    2.148263   3.021523   2.461654   2.754114   3.087844
                    6          7          8          9         10
     6  H    0.000000
     7  C    2.127179   0.000000
     8  H    2.478673   1.089352   0.000000
     9  H    3.033829   1.089352   1.755957   0.000000
    10  O    2.581896   1.403972   2.058295   2.058344   0.000000
    11  H    3.457240   1.939540   2.312665   2.312916   0.946551
    12  C    2.758806   3.892301   4.195867   4.195846   4.895749
    13  H    3.085186   4.168489   4.707670   4.370039   5.011844
    14  H    3.736244   4.672675   4.850495   4.849768   5.801113
    15  H    2.546822   4.169659   4.370380   4.708680   5.013707
                   11         12         13         14         15
    11  H    0.000000
    12  C    5.720232   0.000000
    13  H    5.873190   1.070000   0.000000
    14  H    6.571359   1.070000   1.747303   0.000000
    15  H    5.874726   1.070000   1.747303   1.747303   0.000000
 Stoichiometry    C4H10O
 Framework group  C1[X(C4H10O)]
 Deg. of freedom    39
 Full point group                 C1      NOp   1
 Largest Abelian subgroup         C1      NOp   1
 Largest concise Abelian subgroup C1      NOp   1
                         Standard orientation:                         
 ---------------------------------------------------------------------
 Center     Atomic     Atomic              Coordinates (Angstroms)
 Number     Number      Type              X           Y           Z
 ---------------------------------------------------------------------
    1          6             0        1.219158    0.545426    0.000000
    2          1             0        1.252623    1.185318   -0.877464
    3          1             0        1.252629    1.185303    0.877475
    4          6             0       -0.028805   -0.336238   -0.000008
    5          1             0       -0.031422   -0.984019   -0.871387
    6          1             0       -0.031431   -0.984023    0.871367
    7          6             0       -1.314101    0.472115   -0.000017
    8          1             0       -1.348051    1.116046    0.877984
    9          1             0       -1.348002    1.116112   -0.877973
   10          8             0       -2.396091   -0.422555   -0.000024
   11          1             0       -3.209633    0.061293    0.000245
   12          6             0        2.498408   -0.311965    0.000010
   13          1             0        2.512943   -0.930914   -0.872682
   14          1             0        3.356334    0.327457   -0.001899
   15          1             0        2.514777   -0.928158    0.874617
 ---------------------------------------------------------------------
 Rotational constants (GHZ):     18.8076286      2.0013596      1.8925256
 Standard basis: 3-21G* (6D, 7F)
 There are    65 symmetry adapted basis functions of A   symmetry.
 Integral buffers will be    262144 words long.
 Raffenetti 2 integral format.
 Two-electron integral symmetry is turned on.
    65 basis functions,   105 primitive gaussians,    65 cartesian basis functions
    21 alpha electrons       21 beta electrons
       nuclear repulsion energy       186.0991369787 Hartrees.
 NAtoms=   15 NActive=   15 NUniq=   15 SFac= 1.00D+00 NAtFMM=   60 Big=F
 One-electron integrals computed using PRISM.
 NBasis=    65 RedAO= T  NBF=    65
 NBsUse=    65 1.00D-06 NBFU=    65
 Harris functional with IExCor=  402 diagonalized for initial guess.
 ExpMin= 1.83D-01 ExpMax= 3.22D+02 ExpMxC= 3.22D+02 IAcc=1 IRadAn=         1 AccDes= 1.00D-06
 HarFok:  IExCor= 402 AccDes= 1.00D-06 IRadAn=         1 IDoV=1
 ScaDFX=  1.000000  1.000000  1.000000  1.000000
 Initial guess orbital symmetries:
       Occupied  (A) (A) (A) (A) (A) (A) (A) (A) (A) (A) (A) (A)
                 (A) (A) (A) (A) (A) (A) (A) (A) (A)
       Virtual   (A) (A) (A) (A) (A) (A) (A) (A) (A) (A) (A) (A)
                 (A) (A) (A) (A) (A) (A) (A) (A) (A) (A) (A) (A)
                 (A) (A) (A) (A) (A) (A) (A) (A) (A) (A) (A) (A)
                 (A) (A) (A) (A) (A) (A) (A) (A)
 The electronic state of the initial guess is 1-A.
 Requested convergence on RMS density matrix=1.00D-08 within 128 cycles.
 Requested convergence on MAX density matrix=1.00D-06.
 Requested convergence on             energy=1.00D-06.
 No special actions if energy rises.
 Keep R1 integrals in memory in canonical form, NReq=     2997215.
 Integral accuracy reduced to 1.0D-05 until final iterations.
 Initial convergence to 1.0D-05 achieved.  Increase integral accuracy.
 SCF Done:  E(RB+HF-LYP) =  -232.377484271     A.U. after   13 cycles
             Convg  =    0.1916D-08             -V/T =  2.0068
             S**2   =   0.0000

 **********************************************************************

            Population analysis using the SCF density.

 **********************************************************************

 Orbital symmetries:
       Occupied  (A) (A) (A) (A) (A) (A) (A) (A) (A) (A) (A) (A)
                 (A) (A) (A) (A) (A) (A) (A) (A) (A)
       Virtual   (A) (A) (A) (A) (A) (A) (A) (A) (A) (A) (A) (A)
                 (A) (A) (A) (A) (A) (A) (A) (A) (A) (A) (A) (A)
                 (A) (A) (A) (A) (A) (A) (A) (A) (A) (A) (A) (A)
                 (A) (A) (A) (A) (A) (A) (A) (A)
 The electronic state is 1-A.
 Alpha  occ. eigenvalues --  -19.00801 -10.15465 -10.11017 -10.10356 -10.09626
 Alpha  occ. eigenvalues --   -1.01734  -0.79392  -0.71936  -0.62340  -0.57941
 Alpha  occ. eigenvalues --   -0.50393  -0.48156  -0.43364  -0.42916  -0.39534
 Alpha  occ. eigenvalues --   -0.36390  -0.33939  -0.33642  -0.32499  -0.29684
 Alpha  occ. eigenvalues --   -0.24138
 Alpha virt. eigenvalues --    0.10951   0.12151   0.15508   0.16250   0.17596
 Alpha virt. eigenvalues --    0.20391   0.21216   0.21782   0.22079   0.23550
 Alpha virt. eigenvalues --    0.23817   0.26314   0.29054   0.31779   0.68289
 Alpha virt. eigenvalues --    0.68596   0.68902   0.74060   0.76454   0.78339
 Alpha virt. eigenvalues --    0.79681   0.82759   0.86921   0.88444   0.96834
 Alpha virt. eigenvalues --    0.97484   1.01141   1.04692   1.08679   1.08850
 Alpha virt. eigenvalues --    1.12131   1.12220   1.13138   1.15157   1.18517
 Alpha virt. eigenvalues --    1.30729   1.59449   1.63131   1.64916   1.82658
 Alpha virt. eigenvalues --    1.90655   2.05195   2.32056   3.08397
          Condensed to atoms (all electrons):
              1          2          3          4          5          6
     1  C    5.395960   0.372308   0.372297   0.233240  -0.039466  -0.039478
     2  H    0.372308   0.559424  -0.032898  -0.043062  -0.003331   0.003933
     3  H    0.372297  -0.032898   0.559429  -0.043067   0.003933  -0.003332
     4  C    0.233240  -0.043062  -0.043067   5.479201   0.361539   0.361542
     5  H   -0.039466  -0.003331   0.003933   0.361539   0.546920  -0.033538
     6  H   -0.039478   0.003933  -0.003332   0.361542  -0.033538   0.546931
     7  C   -0.055832  -0.001973  -0.001970   0.248141  -0.041302  -0.041302
     8  H    0.002150  -0.000404   0.004153  -0.054730   0.005484  -0.006645
     9  H    0.002152   0.004153  -0.000404  -0.054744  -0.006644   0.005484
    10  O    0.001576  -0.000010  -0.000010  -0.045952   0.003507   0.003509
    11  H   -0.000228   0.000001   0.000001   0.006725  -0.000104  -0.000104
    12  C    0.281087  -0.044490  -0.044479  -0.067825  -0.002007  -0.001991
    13  H   -0.044840  -0.003199   0.004175  -0.002240   0.004095  -0.000248
    14  H   -0.038937  -0.001894  -0.001868   0.003855   0.000003   0.000003
    15  H   -0.044824   0.004174  -0.003229  -0.002215  -0.000247   0.004076
              7          8          9         10         11         12
     1  C   -0.055832   0.002150   0.002152   0.001576  -0.000228   0.281087
     2  H   -0.001973  -0.000404   0.004153  -0.000010   0.000001  -0.044490
     3  H   -0.001970   0.004153  -0.000404  -0.000010   0.000001  -0.044479
     4  C    0.248141  -0.054730  -0.054744  -0.045952   0.006725  -0.067825
     5  H   -0.041302   0.005484  -0.006644   0.003507  -0.000104  -0.002007
     6  H   -0.041302  -0.006645   0.005484   0.003509  -0.000104  -0.001991
     7  C    5.109428   0.333546   0.333541   0.260508  -0.046021   0.003769
     8  H    0.333546   0.659626  -0.059386  -0.041569  -0.003230  -0.000073
     9  H    0.333541  -0.059386   0.659636  -0.041570  -0.003224  -0.000073
    10  O    0.260508  -0.041569  -0.041570   8.183255   0.256966  -0.000012
    11  H   -0.046021  -0.003230  -0.003224   0.256966   0.445932   0.000001
    12  C    0.003769  -0.000073  -0.000073  -0.000012   0.000001   5.323211
    13  H   -0.000022   0.000003   0.000004   0.000000   0.000000   0.371184
    14  H   -0.000100   0.000003   0.000003   0.000000   0.000000   0.370266
    15  H   -0.000022   0.000004   0.000003   0.000000   0.000000   0.371186
             13         14         15
     1  C   -0.044840  -0.038937  -0.044824
     2  H   -0.003199  -0.001894   0.004174
     3  H    0.004175  -0.001868  -0.003229
     4  C   -0.002240   0.003855  -0.002215
     5  H    0.004095   0.000003  -0.000247
     6  H   -0.000248   0.000003   0.004076
     7  C   -0.000022  -0.000100  -0.000022
     8  H    0.000003   0.000003   0.000004
     9  H    0.000004   0.000003   0.000003
    10  O    0.000000   0.000000   0.000000
    11  H    0.000000   0.000000   0.000000
    12  C    0.371184   0.370266   0.371186
    13  H    0.534650  -0.027610  -0.028949
    14  H   -0.027610   0.534249  -0.027609
    15  H   -0.028949  -0.027609   0.534656
 Mulliken atomic charges:
              1
     1  C   -0.397163
     2  H    0.187269
     3  H    0.187271
     4  C   -0.380406
     5  H    0.201159
     6  H    0.201160
     7  C   -0.100390
     8  H    0.161068
     9  H    0.161069
    10  O   -0.580196
    11  H    0.343284
    12  C   -0.559754
    13  H    0.192995
    14  H    0.189638
    15  H    0.192997
 Sum of Mulliken charges=   0.00000
 Atomic charges with hydrogens summed into heavy atoms:
              1
     1  C   -0.022623
     2  H    0.000000
     3  H    0.000000
     4  C    0.021913
     5  H    0.000000
     6  H    0.000000
     7  C    0.221747
     8  H    0.000000
     9  H    0.000000
    10  O   -0.236912
    11  H    0.000000
    12  C    0.015876
    13  H    0.000000
    14  H    0.000000
    15  H    0.000000
 Sum of Mulliken charges=   0.00000
 Electronic spatial extent (au):  <R**2>=   659.2759
 Charge=     0.0000 electrons
 Dipole moment (field-independent basis, Debye):
    X=    -0.2788    Y=     1.5553    Z=     0.0006  Tot=     1.5801
 Quadrupole moment (field-independent basis, Debye-Ang):
   XX=   -29.1157   YY=   -33.9048   ZZ=   -32.8169
   XY=    -3.9044   XZ=    -0.0018   YZ=     0.0000
 Traceless Quadrupole moment (field-independent basis, Debye-Ang):
   XX=     2.8301   YY=    -1.9590   ZZ=    -0.8711
   XY=    -3.9044   XZ=    -0.0018   YZ=     0.0000
 Octapole moment (field-independent basis, Debye-Ang**2):
  XXX=   -37.0039  YYY=    -1.6515  ZZZ=     0.0034  XYY=    -1.9741
  XXY=    10.7685  XXZ=     0.0047  XZZ=    -3.3482  YZZ=    -0.8690
  YYZ=    -0.0020  XYZ=    -0.0014
 Hexadecapole moment (field-independent basis, Debye-Ang**3):
 XXXX=  -572.8854 YYYY=  -102.3220 ZZZZ=   -56.6319 XXXY=   -15.3230
 XXXZ=    -0.0274 YYYX=     3.2248 YYYZ=     0.0034 ZZZX=     0.0080
 ZZZY=    -0.0015 XXYY=  -133.8066 XXZZ=  -123.0658 YYZZ=   -24.0193
 XXYZ=    -0.0073 YYXZ=    -0.0047 ZZXY=    -0.0376
 N-N= 1.860991369787D+02 E-N=-9.132605819654D+02  KE= 2.308135923262D+02
 ***** Axes restored to original set *****
 -------------------------------------------------------------------
 Center     Atomic                   Forces (Hartrees/Bohr)
 Number     Number              X              Y              Z
 -------------------------------------------------------------------
    1          6          -0.004566923    0.008408436   -0.003327299
    2          1           0.000531066   -0.004751197    0.007656830
    3          1           0.007458540   -0.004745583   -0.001813660
    4          6           0.003707207   -0.001884926    0.002697877
    5          1          -0.006849017    0.000113769    0.003307761
    6          1           0.001063568    0.000111707   -0.007532683
    7          6           0.013134502    0.010318761    0.009579497
    8          1           0.010756729    0.004766467   -0.001277528
    9          1           0.002053663    0.004761703    0.010634009
   10          8          -0.039896390    0.014374731   -0.029114200
   11          1           0.016051736   -0.039739918    0.011708423
   12          6           0.007903061   -0.013827127    0.005766092
   13          1          -0.017292352    0.003129338    0.004339047
   14          1           0.007037148    0.015814725    0.005166143
   15          1          -0.001092538    0.003149114   -0.017790310
 -------------------------------------------------------------------
 Cartesian Forces:  Max     0.039896390 RMS     0.012423210

 GradGradGradGradGradGradGradGradGradGradGradGradGradGradGradGradGradGrad
 Berny optimization.
 Internal  Forces:  Max     0.044420013 RMS     0.008772776
 Search for a local minimum.
 Step number   1 out of a maximum of  79
 All quantities printed in internal units (Hartrees-Bohrs-Radians)
 Second derivative matrix not updated -- first step.
     Eigenvalues ---    0.00237   0.00396   0.00523   0.01639   0.03619
     Eigenvalues ---    0.03700   0.04828   0.04893   0.05380   0.05720
     Eigenvalues ---    0.05720   0.06009   0.08017   0.08376   0.11219
     Eigenvalues ---    0.11941   0.12214   0.13696   0.16000   0.16000
     Eigenvalues ---    0.16000   0.16000   0.21907   0.21912   0.21964
     Eigenvalues ---    0.28519   0.29610   0.30525   0.34888   0.34888
     Eigenvalues ---    0.35218   0.35218   0.35304   0.35304   0.37230
     Eigenvalues ---    0.37230   0.37230   0.44969   0.584701000.00000
     Eigenvalues --- 1000.000001000.000001000.000001000.000001000.00000
     Eigenvalues --- 1000.000001000.000001000.000001000.000001000.00000
     Eigenvalues --- 1000.000001000.000001000.000001000.000001000.00000
     Eigenvalues --- 1000.000001000.000001000.000001000.000001000.00000
     Eigenvalues --- 1000.000001000.000001000.000001000.000001000.00000
     Eigenvalues --- 1000.000001000.000001000.000001000.00000
 RFO step:  Lambda=-1.29926629D-02.
 Linear search not attempted -- first point.
 Iteration  1 RMS(Cart)=  0.03667046 RMS(Int)=  0.00057325
 Iteration  2 RMS(Cart)=  0.00051348 RMS(Int)=  0.00037464
 Iteration  3 RMS(Cart)=  0.00000066 RMS(Int)=  0.00037464
 Variable       Old X    -DE/DX   Delta X   Delta X   Delta X     New X
                                 (Linear)    (Quad)   (Total)
    R1        2.05322   0.00766   0.00000   0.02097   0.02097   2.07419
    R2        2.05322   0.00766   0.00000   0.02097   0.02097   2.07419
    R3        2.88748   0.00563   0.00000   0.01820   0.01820   2.90568
    R4        2.91018   0.00928   0.00000   0.03114   0.03114   2.94131
    R5        2.05183   0.00752   0.00000   0.02055   0.02055   2.07239
    R6        2.05183   0.00752   0.00000   0.02056   0.02056   2.07239
    R7        2.86929   0.00608   0.00000   0.01912   0.01912   2.88841
    R8        2.05858   0.01032   0.00000   0.02852   0.02852   2.08709
    R9        2.05858   0.01032   0.00000   0.02852   0.02852   2.08709
   R10        2.65312   0.03865   0.00000   0.08354   0.08354   2.73666
   R11        1.78872   0.04442   0.00000   0.07432   0.07432   1.86304
   R12        2.02201   0.01789   0.00000   0.04644   0.04644   2.06845
   R13        2.02201   0.01774   0.00000   0.04606   0.04606   2.06806
   R14        2.02201   0.01789   0.00000   0.04644   0.04644   2.06844
    A1        1.88013   0.00045   0.00000  -0.00713  -0.00856   1.87157
    A2        1.94440  -0.00357   0.00000  -0.03160  -0.03220   1.91220
    A3        1.87791   0.00166   0.00000   0.02678   0.02700   1.90491
    A4        1.94441  -0.00357   0.00000  -0.03164  -0.03224   1.91216
    A5        1.87789   0.00166   0.00000   0.02675   0.02697   1.90485
    A6        1.93606   0.00363   0.00000   0.01992   0.02013   1.95619
    A7        1.92433  -0.00046   0.00000  -0.00266  -0.00265   1.92168
    A8        1.92433  -0.00046   0.00000  -0.00263  -0.00263   1.92171
    A9        1.96511   0.00117   0.00000   0.00351   0.00351   1.96863
   A10        1.86306   0.00078   0.00000   0.00861   0.00861   1.87166
   A11        1.89186  -0.00052   0.00000  -0.00327  -0.00327   1.88859
   A12        1.89187  -0.00053   0.00000  -0.00328  -0.00328   1.88859
   A13        1.91886  -0.00252   0.00000  -0.02765  -0.02770   1.89116
   A14        1.91886  -0.00251   0.00000  -0.02766  -0.02772   1.89115
   A15        1.88926  -0.00588   0.00000  -0.02232  -0.02209   1.86717
   A16        1.87461  -0.00021   0.00000  -0.00789  -0.00954   1.86506
   A17        1.93122   0.00558   0.00000   0.04263   0.04213   1.97335
   A18        1.93129   0.00558   0.00000   0.04255   0.04205   1.97334
   A19        1.91413   0.00164   0.00000   0.00950   0.00950   1.92364
   A20        1.91063   0.00256   0.00000   0.01429   0.01415   1.92479
   A21        1.91063   0.00381   0.00000   0.02302   0.02282   1.93346
   A22        1.91063   0.00256   0.00000   0.01431   0.01417   1.92481
   A23        1.91063  -0.00303   0.00000  -0.01651  -0.01671   1.89393
   A24        1.91063  -0.00286   0.00000  -0.01861  -0.01868   1.89196
   A25        1.91063  -0.00303   0.00000  -0.01650  -0.01670   1.89393
    D1        1.06518   0.00196   0.00000   0.02245   0.02200   1.08718
    D2        3.11797   0.00236   0.00000   0.02980   0.02934  -3.13587
    D3       -1.05001   0.00216   0.00000   0.02613   0.02567  -1.02434
    D4       -3.11796  -0.00236   0.00000  -0.02984  -0.02938   3.13585
    D5       -1.06516  -0.00196   0.00000  -0.02250  -0.02204  -1.08720
    D6        1.05004  -0.00216   0.00000  -0.02617  -0.02571   1.02433
    D7       -1.02640  -0.00020   0.00000  -0.00373  -0.00373  -1.03013
    D8        1.02639   0.00020   0.00000   0.00362   0.00362   1.03001
    D9       -3.14159   0.00000   0.00000  -0.00005  -0.00005   3.14154
   D10       -1.08554   0.00092   0.00000   0.00708   0.00704  -1.07850
   D11        1.00886   0.00110   0.00000   0.00971   0.00970   1.01856
   D12        3.10325   0.00129   0.00000   0.01236   0.01238   3.11564
   D13       -3.10706  -0.00128   0.00000  -0.01169  -0.01172  -3.11878
   D14       -1.01266  -0.00110   0.00000  -0.00907  -0.00906  -1.02172
   D15        1.08173  -0.00091   0.00000  -0.00642  -0.00637   1.07536
   D16        1.04530  -0.00018   0.00000  -0.00227  -0.00230   1.04300
   D17        3.13970   0.00001   0.00000   0.00036   0.00036   3.14005
   D18       -1.04909   0.00019   0.00000   0.00301   0.00304  -1.04605
   D19       -1.03020   0.00165   0.00000   0.02155   0.02138  -1.00882
   D20        1.03011  -0.00165   0.00000  -0.02154  -0.02137   1.00874
   D21       -3.14159   0.00000   0.00000  -0.00005  -0.00005   3.14154
   D22        3.11937   0.00184   0.00000   0.02491   0.02474  -3.13908
   D23       -1.10351  -0.00147   0.00000  -0.01818  -0.01801  -1.12153
   D24        1.00797   0.00018   0.00000   0.00330   0.00331   1.01128
   D25        1.10343   0.00147   0.00000   0.01822   0.01805   1.12148
   D26       -3.11945  -0.00183   0.00000  -0.02487  -0.02470   3.13903
   D27       -1.00797  -0.00019   0.00000  -0.00338  -0.00338  -1.01135
   D28        3.14128   0.00000   0.00000   0.00005   0.00005   3.14134
   D29        1.03757   0.00343   0.00000   0.02232   0.02329   1.06086
   D30       -1.03814  -0.00343   0.00000  -0.02228  -0.02325  -1.06139
         Item               Value     Threshold  Converged?
 Maximum Force            0.044420     0.000450     NO 
 RMS     Force            0.008773     0.000300     NO 
 Maximum Displacement     0.148489     0.001800     NO 
 RMS     Displacement     0.036765     0.001200     NO 
 Predicted change in Energy=-6.775434D-03
 GradGradGradGradGradGradGradGradGradGradGradGradGradGradGradGradGradGrad

                          Input orientation:                          
 ---------------------------------------------------------------------
 Center     Atomic     Atomic              Coordinates (Angstroms)
 Number     Number      Type              X           Y           Z
 ---------------------------------------------------------------------
    1          6             0       -0.002980    0.005901   -0.002091
    2          1             0        0.000794   -0.031337    1.094886
    3          1             0        1.043118   -0.031330   -0.332321
    4          6             0       -0.761255   -1.211706   -0.555922
    5          1             0       -1.806889   -1.186497   -0.226262
    6          1             0       -0.765448   -1.186473   -1.652285
    7          6             0       -0.152156   -2.541140   -0.111119
    8          1             0        0.901935   -2.567999   -0.439693
    9          1             0       -0.144312   -2.567998    0.992968
   10          8             0       -0.956492   -3.592452   -0.698496
   11          1             0       -0.603190   -4.476035   -0.440783
   12          6             0       -0.636735    1.350035   -0.464993
   13          1             0       -1.674991    1.416981   -0.124938
   14          1             0       -0.082206    2.201224   -0.058024
   15          1             0       -0.625849    1.418356   -1.557378
 ---------------------------------------------------------------------
                    Distance matrix (angstroms):
                    1          2          3          4          5
     1  C    0.000000
     2  H    1.097616   0.000000
     3  H    1.097615   1.767303   0.000000
     4  C    1.537620   2.167754   2.167728   0.000000
     5  H    2.173972   2.519434   3.077044   1.096659   0.000000
     6  H    2.173994   3.077079   2.519438   1.096661   1.765826
     7  C    2.553735   2.788720   2.788684   1.528479   2.141601
     8  H    2.763210   3.098652   2.542862   2.149242   3.048250
     9  H    2.763164   2.542852   3.098558   2.149234   2.481779
    10  O    3.787125   4.100507   4.100502   2.392990   2.595149
    11  H    4.543177   4.741142   4.741044   3.270182   3.509411
    12  C    1.556477   2.178957   2.178917   2.566377   2.803614
    13  H    2.191314   2.528607   3.086864   2.816142   2.608786
    14  H    2.197464   2.514044   2.515133   3.515267   3.805193
    15  H    2.191326   3.086875   2.527411   2.817530   3.154677
                    6          7          8          9         10
     6  H    0.000000
     7  C    2.141598   0.000000
     8  H    2.481765   1.104442   0.000000
     9  H    3.048242   1.104441   1.774021   0.000000
    10  O    2.595178   1.448180   2.137811   2.137801   0.000000
    11  H    3.509314   2.013934   2.430228   2.430394   0.985879
    12  C    2.803587   3.937168   4.209411   4.209408   4.958321
    13  H    3.152464   4.240983   4.756016   4.412794   5.093096
    14  H    3.805913   4.743177   4.884638   4.884048   5.894172
    15  H    2.610293   4.241894   4.412977   4.756802   5.094625
                   11         12         13         14         15
    11  H    0.000000
    12  C    5.826217   0.000000
    13  H    5.998013   1.094575   0.000000
    14  H    6.708481   1.094372   1.776649   0.000000
    15  H    5.999262   1.094573   1.775552   1.776652   0.000000
 Stoichiometry    C4H10O
 Framework group  C1[X(C4H10O)]
 Deg. of freedom    39
 Full point group                 C1      NOp   1
 Largest Abelian subgroup         C1      NOp   1
 Largest concise Abelian subgroup C1      NOp   1
                         Standard orientation:                         
 ---------------------------------------------------------------------
 Center     Atomic     Atomic              Coordinates (Angstroms)
 Number     Number      Type              X           Y           Z
 ---------------------------------------------------------------------
    1          6             0        1.230773    0.541356   -0.000030
    2          1             0        1.228932    1.192448   -0.883680
    3          1             0        1.228925    1.192441    0.883623
    4          6             0       -0.036078   -0.330060   -0.000007
    5          1             0       -0.046234   -0.980453   -0.882927
    6          1             0       -0.046223   -0.980475    0.882899
    7          6             0       -1.322547    0.495314    0.000016
    8          1             0       -1.313633    1.153256    0.887047
    9          1             0       -1.313617    1.153311   -0.886974
   10          8             0       -2.426446   -0.442040   -0.000035
   11          1             0       -3.284950    0.042653    0.000212
   12          6             0        2.530257   -0.315359    0.000020
   13          1             0        2.562434   -0.955950   -0.886942
   14          1             0        3.417578    0.325193   -0.001572
   15          1             0        2.563926   -0.953614    0.888608
 ---------------------------------------------------------------------
 Rotational constants (GHZ):     18.2083252      1.9539111      1.8460258
 Standard basis: 3-21G* (6D, 7F)
 There are    65 symmetry adapted basis functions of A   symmetry.
 Integral buffers will be    262144 words long.
 Raffenetti 2 integral format.
 Two-electron integral symmetry is turned on.
    65 basis functions,   105 primitive gaussians,    65 cartesian basis functions
    21 alpha electrons       21 beta electrons
       nuclear repulsion energy       183.4627637247 Hartrees.
 NAtoms=   15 NActive=   15 NUniq=   15 SFac= 1.00D+00 NAtFMM=   60 Big=F
 One-electron integrals computed using PRISM.
 NBasis=    65 RedAO= T  NBF=    65
 NBsUse=    65 1.00D-06 NBFU=    65
 Initial guess read from the read-write file:
 Initial guess orbital symmetries:
       Occupied  (A) (A) (A) (A) (A) (A) (A) (A) (A) (A) (A) (A)
                 (A) (A) (A) (A) (A) (A) (A) (A) (A)
       Virtual   (A) (A) (A) (A) (A) (A) (A) (A) (A) (A) (A) (A)
                 (A) (A) (A) (A) (A) (A) (A) (A) (A) (A) (A) (A)
                 (A) (A) (A) (A) (A) (A) (A) (A) (A) (A) (A) (A)
                 (A) (A) (A) (A) (A) (A) (A) (A)
 Harris functional with IExCor=  402 diagonalized for initial guess.
 ExpMin= 1.83D-01 ExpMax= 3.22D+02 ExpMxC= 3.22D+02 IAcc=1 IRadAn=         1 AccDes= 1.00D-06
 HarFok:  IExCor= 402 AccDes= 1.00D-06 IRadAn=         1 IDoV=1
 ScaDFX=  1.000000  1.000000  1.000000  1.000000
 Requested convergence on RMS density matrix=1.00D-08 within 128 cycles.
 Requested convergence on MAX density matrix=1.00D-06.
 Requested convergence on             energy=1.00D-06.
 No special actions if energy rises.
 Keep R1 integrals in memory in canonical form, NReq=     2997215.
 Integral accuracy reduced to 1.0D-05 until final iterations.
 Initial convergence to 1.0D-05 achieved.  Increase integral accuracy.
 SCF Done:  E(RB+HF-LYP) =  -232.383934619     A.U. after   11 cycles
             Convg  =    0.4434D-08             -V/T =  2.0087
             S**2   =   0.0000
 ***** Axes restored to original set *****
 -------------------------------------------------------------------
 Center     Atomic                   Forces (Hartrees/Bohr)
 Number     Number              X              Y              Z
 -------------------------------------------------------------------
    1          6          -0.001058686    0.005168651   -0.000777569
    2          1           0.000017724   -0.000111166    0.000392506
    3          1           0.000384575   -0.000107117   -0.000091702
    4          6          -0.004264568   -0.000364523   -0.003119385
    5          1          -0.000059194   -0.000042412    0.000051052
    6          1           0.000030057   -0.000040706   -0.000071336
    7          6           0.007595409    0.003686622    0.005547290
    8          1          -0.000861758   -0.001990811   -0.000577446
    9          1          -0.000810905   -0.001991382   -0.000644157
   10          8          -0.007857498    0.004727070   -0.005737615
   11          1           0.004881427   -0.004123136    0.003564013
   12          6           0.002734493   -0.005579156    0.001998071
   13          1          -0.000775119    0.000121345    0.000098632
   14          1           0.000194213    0.000529580    0.000135903
   15          1          -0.000150170    0.000117143   -0.000768256
 -------------------------------------------------------------------
 Cartesian Forces:  Max     0.007857498 RMS     0.002920020

 GradGradGradGradGradGradGradGradGradGradGradGradGradGradGradGradGradGrad
 Berny optimization.
 Internal  Forces:  Max     0.006682126 RMS     0.001504534
 Search for a local minimum.
 Step number   2 out of a maximum of  79
 All quantities printed in internal units (Hartrees-Bohrs-Radians)
 Update second derivatives using D2CorX and points  1  2
 Trust test= 9.52D-01 RLast= 2.10D-01 DXMaxT set to 4.24D-01
     Eigenvalues ---    0.00237   0.00396   0.00523   0.01639   0.03569
     Eigenvalues ---    0.03621   0.04834   0.04900   0.05507   0.05545
     Eigenvalues ---    0.05569   0.06418   0.08228   0.08390   0.11285
     Eigenvalues ---    0.12106   0.12224   0.13568   0.15630   0.16000
     Eigenvalues ---    0.16000   0.16440   0.21583   0.21927   0.22059
     Eigenvalues ---    0.28785   0.29629   0.30443   0.34888   0.35021
     Eigenvalues ---    0.35218   0.35244   0.35304   0.35544   0.37223
     Eigenvalues ---    0.37230   0.37577   0.44328   0.553911000.00000
     Eigenvalues --- 1000.000001000.000001000.000001000.000001000.00000
     Eigenvalues --- 1000.000001000.000001000.000001000.000001000.00000
     Eigenvalues --- 1000.000001000.000001000.000001000.000001000.00000
     Eigenvalues --- 1000.000001000.000001000.000001000.000001000.00000
     Eigenvalues --- 1000.000001000.000001000.000001000.000001000.00000
     Eigenvalues --- 1000.000001000.000001000.000001000.00000
 RFO step:  Lambda=-7.57002668D-04.
 Quartic linear search produced a step of  0.02486.
 Iteration  1 RMS(Cart)=  0.00910362 RMS(Int)=  0.00014569
 Iteration  2 RMS(Cart)=  0.00016981 RMS(Int)=  0.00006332
 Iteration  3 RMS(Cart)=  0.00000004 RMS(Int)=  0.00006332
 Variable       Old X    -DE/DX   Delta X   Delta X   Delta X     New X
                                 (Linear)    (Quad)   (Total)
    R1        2.07419   0.00040   0.00052   0.00194   0.00246   2.07666
    R2        2.07419   0.00040   0.00052   0.00195   0.00247   2.07666
    R3        2.90568   0.00113   0.00045   0.00460   0.00506   2.91074
    R4        2.94131  -0.00541   0.00077  -0.01820  -0.01743   2.92389
    R5        2.07239   0.00007   0.00051   0.00098   0.00149   2.07388
    R6        2.07239   0.00007   0.00051   0.00098   0.00149   2.07388
    R7        2.88841   0.00153   0.00048   0.00585   0.00633   2.89473
    R8        2.08709  -0.00060   0.00071  -0.00069   0.00002   2.08711
    R9        2.08709  -0.00060   0.00071  -0.00069   0.00002   2.08711
   R10        2.73666   0.00210   0.00208   0.00791   0.00999   2.74665
   R11        1.86304   0.00638   0.00185   0.01394   0.01579   1.87883
   R12        2.06845   0.00077   0.00115   0.00387   0.00503   2.07348
   R13        2.06806   0.00056   0.00115   0.00328   0.00442   2.07249
   R14        2.06844   0.00077   0.00115   0.00387   0.00503   2.07347
    A1        1.87157  -0.00011  -0.00021  -0.00018  -0.00044   1.87112
    A2        1.91220   0.00013  -0.00080  -0.00131  -0.00212   1.91008
    A3        1.90491   0.00024   0.00067   0.00255   0.00322   1.90813
    A4        1.91216   0.00013  -0.00080  -0.00129  -0.00211   1.91005
    A5        1.90485   0.00024   0.00067   0.00256   0.00324   1.90809
    A6        1.95619  -0.00060   0.00050  -0.00221  -0.00171   1.95449
    A7        1.92168   0.00057  -0.00007   0.00236   0.00229   1.92397
    A8        1.92171   0.00057  -0.00007   0.00236   0.00228   1.92399
    A9        1.96863  -0.00193   0.00009  -0.00984  -0.00976   1.95887
   A10        1.87166  -0.00028   0.00021   0.00236   0.00257   1.87423
   A11        1.88859   0.00057  -0.00008   0.00165   0.00157   1.89016
   A12        1.88859   0.00057  -0.00008   0.00166   0.00158   1.89017
   A13        1.89116   0.00220  -0.00069   0.01625   0.01539   1.90655
   A14        1.89115   0.00220  -0.00069   0.01625   0.01540   1.90654
   A15        1.86717  -0.00275  -0.00055  -0.01629  -0.01680   1.85037
   A16        1.86506  -0.00021  -0.00024   0.00861   0.00803   1.87309
   A17        1.97335  -0.00056   0.00105  -0.01117  -0.01006   1.96329
   A18        1.97334  -0.00056   0.00105  -0.01116  -0.01006   1.96328
   A19        1.92364  -0.00668   0.00024  -0.04224  -0.04200   1.88163
   A20        1.92479   0.00011   0.00035   0.00107   0.00142   1.92621
   A21        1.93346   0.00018   0.00057   0.00242   0.00298   1.93644
   A22        1.92481   0.00011   0.00035   0.00107   0.00142   1.92623
   A23        1.89393  -0.00012  -0.00042  -0.00104  -0.00146   1.89247
   A24        1.89196  -0.00019  -0.00046  -0.00267  -0.00314   1.88882
   A25        1.89393  -0.00012  -0.00042  -0.00104  -0.00146   1.89248
    D1        1.08718  -0.00019   0.00055  -0.00208  -0.00154   1.08563
    D2       -3.13587   0.00017   0.00073   0.00370   0.00442  -3.13145
    D3       -1.02434  -0.00001   0.00064   0.00081   0.00144  -1.02290
    D4        3.13585  -0.00017  -0.00073  -0.00382  -0.00454   3.13131
    D5       -1.08720   0.00019  -0.00055   0.00196   0.00142  -1.08578
    D6        1.02433   0.00001  -0.00064  -0.00093  -0.00156   1.02277
    D7       -1.03013  -0.00018  -0.00009  -0.00293  -0.00303  -1.03315
    D8        1.03001   0.00018   0.00009   0.00284   0.00293   1.03295
    D9        3.14154   0.00000   0.00000  -0.00004  -0.00004   3.14150
   D10       -1.07850   0.00003   0.00018   0.00160   0.00178  -1.07672
   D11        1.01856   0.00008   0.00024   0.00258   0.00282   1.02138
   D12        3.11564   0.00012   0.00031   0.00355   0.00387   3.11950
   D13       -3.11878  -0.00012  -0.00029  -0.00107  -0.00137  -3.12014
   D14       -1.02172  -0.00007  -0.00023  -0.00009  -0.00032  -1.02204
   D15        1.07536  -0.00002  -0.00016   0.00088   0.00072   1.07608
   D16        1.04300  -0.00004  -0.00006   0.00025   0.00019   1.04319
   D17        3.14005   0.00000   0.00001   0.00123   0.00124   3.14129
   D18       -1.04605   0.00005   0.00008   0.00220   0.00228  -1.04377
   D19       -1.00882  -0.00103   0.00053  -0.01364  -0.01323  -1.02204
   D20        1.00874   0.00103  -0.00053   0.01363   0.01322   1.02196
   D21        3.14154   0.00000   0.00000   0.00000   0.00000   3.14154
   D22       -3.13908  -0.00090   0.00061  -0.01138  -0.01088   3.13322
   D23       -1.12153   0.00117  -0.00045   0.01589   0.01556  -1.10596
   D24        1.01128   0.00013   0.00008   0.00226   0.00234   1.01362
   D25        1.12148  -0.00117   0.00045  -0.01590  -0.01557   1.10591
   D26        3.13903   0.00090  -0.00061   0.01137   0.01088  -3.13328
   D27       -1.01135  -0.00013  -0.00008  -0.00226  -0.00234  -1.01369
   D28        3.14134   0.00000   0.00000   0.00004   0.00004   3.14138
   D29        1.06086  -0.00057   0.00058  -0.00274  -0.00219   1.05867
   D30       -1.06139   0.00057  -0.00058   0.00284   0.00229  -1.05910
         Item               Value     Threshold  Converged?
 Maximum Force            0.006682     0.000450     NO 
 RMS     Force            0.001505     0.000300     NO 
 Maximum Displacement     0.034535     0.001800     NO 
 RMS     Displacement     0.009188     0.001200     NO 
 Predicted change in Energy=-3.862001D-04
 GradGradGradGradGradGradGradGradGradGradGradGradGradGradGradGradGradGrad

                          Input orientation:                          
 ---------------------------------------------------------------------
 Center     Atomic     Atomic              Coordinates (Angstroms)
 Number     Number      Type              X           Y           Z
 ---------------------------------------------------------------------
    1          6             0       -0.004810    0.008155   -0.003237
    2          1             0       -0.001274   -0.033683    1.094880
    3          1             0        1.042464   -0.033640   -0.333537
    4          6             0       -0.766901   -1.209042   -0.560154
    5          1             0       -1.812988   -1.185868   -0.229158
    6          1             0       -0.769540   -1.185745   -1.657354
    7          6             0       -0.148918   -2.536006   -0.108763
    8          1             0        0.903197   -2.579421   -0.441903
    9          1             0       -0.146438   -2.579513    0.994830
   10          8             0       -0.964293   -3.581385   -0.704506
   11          1             0       -0.585007   -4.457760   -0.427714
   12          6             0       -0.633669    1.345085   -0.462743
   13          1             0       -1.674541    1.414285   -0.122562
   14          1             0       -0.078690    2.199476   -0.056794
   15          1             0       -0.625249    1.414595   -1.557739
 ---------------------------------------------------------------------
                    Distance matrix (angstroms):
                    1          2          3          4          5
     1  C    0.000000
     2  H    1.098919   0.000000
     3  H    1.098921   1.769114   0.000000
     4  C    1.540295   2.169515   2.169500   0.000000
     5  H    2.178587   2.522482   3.080931   1.097449   0.000000
     6  H    2.178603   3.080953   2.522537   1.097450   1.768765
     7  C    2.550423   2.780679   2.780603   1.531826   2.146275
     8  H    2.777130   3.108143   2.551889   2.163596   3.060214
     9  H    2.777088   2.551927   3.107976   2.163595   2.493548
    10  O    3.781161   4.092846   4.092821   2.384913   2.585487
    11  H    4.523406   4.715029   4.714909   3.256500   3.500377
    12  C    1.547253   2.174193   2.174167   2.559455   2.801978
    13  H    2.186195   2.525590   3.085955   2.810186   2.606018
    14  H    2.193221   2.513831   2.514037   3.513546   3.807631
    15  H    2.186206   3.085975   2.525336   2.810465   3.152501
                    6          7          8          9         10
     6  H    0.000000
     7  C    2.146279   0.000000
     8  H    2.493532   1.104452   0.000000
     9  H    3.060216   1.104453   1.779307   0.000000
    10  O    2.585525   1.453466   2.135511   2.135504   0.000000
    11  H    3.500307   1.996257   2.396478   2.396620   0.994236
    12  C    2.801903   3.927233   4.214753   4.214782   4.943468
    13  H    3.151948   4.234681   4.764075   4.419739   5.079354
    14  H    3.807727   4.736288   4.893901   4.893796   5.884061
    15  H    2.606245   4.234817   4.419661   4.764218   5.079643
                   11         12         13         14         15
    11  H    0.000000
    12  C    5.803155   0.000000
    13  H    5.980060   1.097236   0.000000
    14  H    6.686758   1.096713   1.779772   0.000000
    15  H    5.980228   1.097233   1.777850   1.779776   0.000000
 Stoichiometry    C4H10O
 Framework group  C1[X(C4H10O)]
 Deg. of freedom    39
 Full point group                 C1      NOp   1
 Largest Abelian subgroup         C1      NOp   1
 Largest concise Abelian subgroup C1      NOp   1
                         Standard orientation:                         
 ---------------------------------------------------------------------
 Center     Atomic     Atomic              Coordinates (Angstroms)
 Number     Number      Type              X           Y           Z
 ---------------------------------------------------------------------
    1          6             0        1.231084    0.539819   -0.000044
    2          1             0        1.225357    1.191831   -0.884618
    3          1             0        1.225323    1.191879    0.884496
    4          6             0       -0.036479   -0.335277   -0.000026
    5          1             0       -0.049235   -0.984940   -0.884429
    6          1             0       -0.049194   -0.985000    0.884336
    7          6             0       -1.319063    0.502262    0.000029
    8          1             0       -1.326318    1.156641    0.889719
    9          1             0       -1.326324    1.156741   -0.889589
   10          8             0       -2.418719   -0.448169   -0.000030
   11          1             0       -3.267769    0.069150    0.000201
   12          6             0        2.522868   -0.311820    0.000037
   13          1             0        2.556601   -0.954415   -0.888704
   14          1             0        3.413998    0.327450   -0.000289
   15          1             0        2.556860   -0.953887    0.889146
 ---------------------------------------------------------------------
 Rotational constants (GHZ):     18.0679026      1.9635609      1.8534696
 Standard basis: 3-21G* (6D, 7F)
 There are    65 symmetry adapted basis functions of A   symmetry.
 Integral buffers will be    262144 words long.
 Raffenetti 2 integral format.
 Two-electron integral symmetry is turned on.
    65 basis functions,   105 primitive gaussians,    65 cartesian basis functions
    21 alpha electrons       21 beta electrons
       nuclear repulsion energy       183.4929992573 Hartrees.
 NAtoms=   15 NActive=   15 NUniq=   15 SFac= 1.00D+00 NAtFMM=   60 Big=F
 One-electron integrals computed using PRISM.
 NBasis=    65 RedAO= T  NBF=    65
 NBsUse=    65 1.00D-06 NBFU=    65
 Initial guess read from the read-write file:
 Initial guess orbital symmetries:
       Occupied  (A) (A) (A) (A) (A) (A) (A) (A) (A) (A) (A) (A)
                 (A) (A) (A) (A) (A) (A) (A) (A) (A)
       Virtual   (A) (A) (A) (A) (A) (A) (A) (A) (A) (A) (A) (A)
                 (A) (A) (A) (A) (A) (A) (A) (A) (A) (A) (A) (A)
                 (A) (A) (A) (A) (A) (A) (A) (A) (A) (A) (A) (A)
                 (A) (A) (A) (A) (A) (A) (A) (A)
 Harris functional with IExCor=  402 diagonalized for initial guess.
 ExpMin= 1.83D-01 ExpMax= 3.22D+02 ExpMxC= 3.22D+02 IAcc=1 IRadAn=         1 AccDes= 1.00D-06
 HarFok:  IExCor= 402 AccDes= 1.00D-06 IRadAn=         1 IDoV=1
 ScaDFX=  1.000000  1.000000  1.000000  1.000000
 Requested convergence on RMS density matrix=1.00D-08 within 128 cycles.
 Requested convergence on MAX density matrix=1.00D-06.
 Requested convergence on             energy=1.00D-06.
 No special actions if energy rises.
 Keep R1 integrals in memory in canonical form, NReq=     2997215.
 Integral accuracy reduced to 1.0D-05 until final iterations.
 Initial convergence to 1.0D-05 achieved.  Increase integral accuracy.
 SCF Done:  E(RB+HF-LYP) =  -232.384322180     A.U. after   10 cycles
             Convg  =    0.7577D-08             -V/T =  2.0088
             S**2   =   0.0000
 ***** Axes restored to original set *****
 -------------------------------------------------------------------
 Center     Atomic                   Forces (Hartrees/Bohr)
 Number     Number              X              Y              Z
 -------------------------------------------------------------------
    1          6          -0.000303849    0.002004287   -0.000230002
    2          1           0.000035458   -0.000099566   -0.000419533
    3          1          -0.000387465   -0.000099245    0.000164928
    4          6          -0.000161670   -0.000274915   -0.000116932
    5          1           0.000756162   -0.000264249   -0.000007528
    6          1           0.000223830   -0.000263178    0.000723721
    7          6           0.002556413    0.003880035    0.001870018
    8          1          -0.001268143   -0.000193697   -0.000141134
    9          1          -0.000518877   -0.000193861   -0.001165400
   10          8          -0.001431893   -0.002720698   -0.001048386
   11          1          -0.000145582   -0.000737148   -0.000105229
   12          6           0.000612087   -0.000843080    0.000453056
   13          1           0.000740505    0.000133121   -0.000335546
   14          1          -0.000610734   -0.000458644   -0.000448443
   15          1          -0.000096241    0.000130837    0.000806411
 -------------------------------------------------------------------
 Cartesian Forces:  Max     0.003880035 RMS     0.001042563

 GradGradGradGradGradGradGradGradGradGradGradGradGradGradGradGradGradGrad
 Berny optimization.
 Internal  Forces:  Max     0.003847436 RMS     0.000641517
 Search for a local minimum.
 Step number   3 out of a maximum of  79
 All quantities printed in internal units (Hartrees-Bohrs-Radians)
 Update second derivatives using D2CorX and points  1  2  3
 Trust test= 1.00D+00 RLast= 7.05D-02 DXMaxT set to 4.24D-01
     Eigenvalues ---    0.00237   0.00396   0.00523   0.01639   0.03577
     Eigenvalues ---    0.03676   0.04821   0.04890   0.05479   0.05550
     Eigenvalues ---    0.05635   0.06032   0.08134   0.08306   0.11115
     Eigenvalues ---    0.12096   0.12153   0.13506   0.15208   0.16000
     Eigenvalues ---    0.16000   0.17212   0.21878   0.21943   0.23700
     Eigenvalues ---    0.26394   0.29675   0.30635   0.34888   0.34900
     Eigenvalues ---    0.35218   0.35248   0.35304   0.35749   0.37226
     Eigenvalues ---    0.37230   0.38991   0.43621   0.566771000.00000
     Eigenvalues --- 1000.000001000.000001000.000001000.000001000.00000
     Eigenvalues --- 1000.000001000.000001000.000001000.000001000.00000
     Eigenvalues --- 1000.000001000.000001000.000001000.000001000.00000
     Eigenvalues --- 1000.000001000.000001000.000001000.000001000.00000
     Eigenvalues --- 1000.000001000.000001000.000001000.000001000.00000
     Eigenvalues --- 1000.000001000.000001000.000001000.00000
 RFO step:  Lambda=-9.05773558D-05.
 Quartic linear search produced a step of  0.01133.
 Iteration  1 RMS(Cart)=  0.00298247 RMS(Int)=  0.00000564
 Iteration  2 RMS(Cart)=  0.00000580 RMS(Int)=  0.00000314
 Iteration  3 RMS(Cart)=  0.00000000 RMS(Int)=  0.00000314
 Variable       Old X    -DE/DX   Delta X   Delta X   Delta X     New X
                                 (Linear)    (Quad)   (Total)
    R1        2.07666  -0.00041   0.00003  -0.00078  -0.00075   2.07590
    R2        2.07666  -0.00041   0.00003  -0.00078  -0.00075   2.07591
    R3        2.91074   0.00060   0.00006   0.00275   0.00281   2.91355
    R4        2.92389  -0.00130  -0.00020  -0.00634  -0.00654   2.91734
    R5        2.07388  -0.00073   0.00002  -0.00179  -0.00177   2.07210
    R6        2.07388  -0.00073   0.00002  -0.00179  -0.00178   2.07210
    R7        2.89473  -0.00053   0.00007  -0.00095  -0.00087   2.89386
    R8        2.08711  -0.00116   0.00000  -0.00317  -0.00317   2.08394
    R9        2.08711  -0.00116   0.00000  -0.00317  -0.00317   2.08394
   R10        2.74665   0.00385   0.00011   0.01039   0.01050   2.75715
   R11        1.87883   0.00056   0.00018   0.00324   0.00342   1.88226
   R12        2.07348  -0.00080   0.00006  -0.00130  -0.00125   2.07223
   R13        2.07249  -0.00083   0.00005  -0.00146  -0.00141   2.07108
   R14        2.07347  -0.00080   0.00006  -0.00130  -0.00124   2.07223
    A1        1.87112   0.00002  -0.00001  -0.00087  -0.00087   1.87025
    A2        1.91008  -0.00015  -0.00002  -0.00155  -0.00158   1.90850
    A3        1.90813  -0.00002   0.00004   0.00108   0.00112   1.90925
    A4        1.91005  -0.00015  -0.00002  -0.00153  -0.00155   1.90850
    A5        1.90809  -0.00002   0.00004   0.00112   0.00116   1.90925
    A6        1.95449   0.00031  -0.00002   0.00164   0.00162   1.95611
    A7        1.92397  -0.00012   0.00003   0.00063   0.00066   1.92463
    A8        1.92399  -0.00012   0.00003   0.00061   0.00064   1.92463
    A9        1.95887   0.00080  -0.00011   0.00242   0.00231   1.96117
   A10        1.87423   0.00024   0.00003   0.00211   0.00213   1.87636
   A11        1.89016  -0.00042   0.00002  -0.00294  -0.00292   1.88724
   A12        1.89017  -0.00042   0.00002  -0.00294  -0.00292   1.88725
   A13        1.90655  -0.00021   0.00017   0.00141   0.00158   1.90813
   A14        1.90654  -0.00021   0.00017   0.00142   0.00159   1.90813
   A15        1.85037   0.00112  -0.00019   0.00255   0.00237   1.85273
   A16        1.87309   0.00041   0.00009   0.00489   0.00497   1.87806
   A17        1.96329  -0.00056  -0.00011  -0.00505  -0.00517   1.95813
   A18        1.96328  -0.00056  -0.00011  -0.00504  -0.00516   1.95812
   A19        1.88163   0.00096  -0.00048   0.00152   0.00105   1.88268
   A20        1.92621   0.00018   0.00002   0.00134   0.00135   1.92756
   A21        1.93644   0.00035   0.00003   0.00281   0.00284   1.93928
   A22        1.92623   0.00018   0.00002   0.00132   0.00133   1.92756
   A23        1.89247  -0.00026  -0.00002  -0.00184  -0.00186   1.89061
   A24        1.88882  -0.00021  -0.00004  -0.00200  -0.00203   1.88678
   A25        1.89248  -0.00026  -0.00002  -0.00185  -0.00186   1.89061
    D1        1.08563   0.00000  -0.00002  -0.00024  -0.00026   1.08537
    D2       -3.13145   0.00015   0.00005   0.00312   0.00317  -3.12829
    D3       -1.02290   0.00007   0.00002   0.00143   0.00145  -1.02145
    D4        3.13131  -0.00015  -0.00005  -0.00307  -0.00312   3.12819
    D5       -1.08578   0.00000   0.00002   0.00029   0.00031  -1.08547
    D6        1.02277  -0.00007  -0.00002  -0.00139  -0.00141   1.02136
    D7       -1.03315  -0.00007  -0.00003  -0.00162  -0.00166  -1.03481
    D8        1.03295   0.00008   0.00003   0.00174   0.00177   1.03472
    D9        3.14150   0.00000   0.00000   0.00005   0.00005   3.14155
   D10       -1.07672  -0.00001   0.00002   0.00014   0.00015  -1.07657
   D11        1.02138   0.00000   0.00003   0.00054   0.00057   1.02195
   D12        3.11950   0.00002   0.00004   0.00093   0.00097   3.12047
   D13       -3.12014  -0.00002  -0.00002  -0.00008  -0.00010  -3.12024
   D14       -1.02204   0.00000   0.00000   0.00032   0.00032  -1.02172
   D15        1.07608   0.00001   0.00001   0.00071   0.00071   1.07680
   D16        1.04319  -0.00001   0.00000   0.00000   0.00000   1.04319
   D17        3.14129   0.00000   0.00001   0.00040   0.00041  -3.14148
   D18       -1.04377   0.00001   0.00003   0.00079   0.00081  -1.04296
   D19       -1.02204  -0.00013  -0.00015  -0.00375  -0.00390  -1.02594
   D20        1.02196   0.00013   0.00015   0.00376   0.00391   1.02587
   D21        3.14154   0.00000   0.00000   0.00001   0.00001   3.14155
   D22        3.13322  -0.00021  -0.00012  -0.00407  -0.00420   3.12902
   D23       -1.10596   0.00005   0.00018   0.00343   0.00361  -1.10235
   D24        1.01362  -0.00008   0.00003  -0.00032  -0.00029   1.01333
   D25        1.10591  -0.00005  -0.00018  -0.00344  -0.00362   1.10229
   D26       -3.13328   0.00021   0.00012   0.00406   0.00419  -3.12909
   D27       -1.01369   0.00008  -0.00003   0.00032   0.00029  -1.01340
   D28        3.14138   0.00000   0.00000   0.00004   0.00004   3.14142
   D29        1.05867  -0.00014  -0.00002  -0.00047  -0.00049   1.05818
   D30       -1.05910   0.00014   0.00003   0.00056   0.00058  -1.05852
         Item               Value     Threshold  Converged?
 Maximum Force            0.003847     0.000450     NO 
 RMS     Force            0.000642     0.000300     NO 
 Maximum Displacement     0.011329     0.001800     NO 
 RMS     Displacement     0.002984     0.001200     NO 
 Predicted change in Energy=-4.536844D-05
 GradGradGradGradGradGradGradGradGradGradGradGradGradGradGradGradGradGrad

                          Input orientation:                          
 ---------------------------------------------------------------------
 Center     Atomic     Atomic              Coordinates (Angstroms)
 Number     Number      Type              X           Y           Z
 ---------------------------------------------------------------------
    1          6             0       -0.004978    0.012180   -0.003336
    2          1             0       -0.001096   -0.030670    1.094342
    3          1             0        1.042034   -0.030585   -0.333021
    4          6             0       -0.765897   -1.207979   -0.559490
    5          1             0       -1.810842   -1.187590   -0.227812
    6          1             0       -0.767342   -1.187456   -1.655807
    7          6             0       -0.148581   -2.534858   -0.108507
    8          1             0        0.900930   -2.581786   -0.443812
    9          1             0       -0.149142   -2.581886    0.993263
   10          8             0       -0.965361   -3.586210   -0.705397
   11          1             0       -0.584787   -4.463755   -0.427569
   12          6             0       -0.632730    1.345907   -0.462023
   13          1             0       -1.673129    1.416193   -0.122741
   14          1             0       -0.080060    2.201852   -0.058221
   15          1             0       -0.625675    1.416173   -1.556322
 ---------------------------------------------------------------------
                    Distance matrix (angstroms):
                    1          2          3          4          5
     1  C    0.000000
     2  H    1.098521   0.000000
     3  H    1.098524   1.767905   0.000000
     4  C    1.541782   2.169364   2.169369   0.000000
     5  H    2.179675   2.522248   3.080362   1.096511   0.000000
     6  H    2.179676   3.080359   2.522292   1.096510   1.768633
     7  C    2.553250   2.782006   2.781970   1.531363   2.143006
     8  H    2.782688   3.112518   2.557502   2.163109   3.056820
     9  H    2.782656   2.557507   3.112406   2.163111   2.489244
    10  O    3.789939   4.100089   4.100094   2.391037   2.587722
    11  H    4.533227   4.723257   4.723186   3.263477   3.503766
    12  C    1.543792   2.171681   2.171683   2.559212   2.803820
    13  H    2.183629   2.523964   3.083746   2.810711   2.609538
    14  H    2.191646   2.513720   2.513640   3.514056   3.809551
    15  H    2.183626   3.083743   2.524049   2.810606   3.154225
                    6          7          8          9         10
     6  H    0.000000
     7  C    2.143011   0.000000
     8  H    2.489221   1.102772   0.000000
     9  H    3.056825   1.102773   1.779841   0.000000
    10  O    2.587762   1.459023   2.135494   2.135491   0.000000
    11  H    3.503717   2.003178   2.397795   2.397911   0.996047
    12  C    2.803778   3.926794   4.216541   4.216548   4.949308
    13  H    3.154319   4.235003   4.765785   4.421837   5.085711
    14  H    3.809468   4.737472   4.898390   4.898423   5.891032
    15  H    2.609377   4.234906   4.421750   4.765705   5.085596
                   11         12         13         14         15
    11  H    0.000000
    12  C    5.809962   0.000000
    13  H    5.987587   1.096577   0.000000
    14  H    6.694885   1.095967   1.777439   0.000000
    15  H    5.987429   1.096575   1.775475   1.777441   0.000000
 Stoichiometry    C4H10O
 Framework group  C1[X(C4H10O)]
 Deg. of freedom    39
 Full point group                 C1      NOp   1
 Largest Abelian subgroup         C1      NOp   1
 Largest concise Abelian subgroup C1      NOp   1
                         Standard orientation:                         
 ---------------------------------------------------------------------
 Center     Atomic     Atomic              Coordinates (Angstroms)
 Number     Number      Type              X           Y           Z
 ---------------------------------------------------------------------
    1          6             0       -1.235320    0.538710    0.000024
    2          1             0       -1.228923    1.190856    0.884001
    3          1             0       -1.228908    1.190925   -0.883904
    4          6             0        0.035558   -0.334195    0.000006
    5          1             0        0.051328   -0.982321    0.884325
    6          1             0        0.051298   -0.982328   -0.884308
    7          6             0        1.317683    0.503198   -0.000013
    8          1             0        1.328325    1.154349   -0.889954
    9          1             0        1.328318    1.154406    0.889887
   10          8             0        2.423877   -0.448160    0.000025
   11          1             0        3.273746    0.071296   -0.000147
   12          6             0       -2.523558   -0.312017   -0.000019
   13          1             0       -2.558063   -0.954784    0.887755
   14          1             0       -3.416384    0.323597   -0.000119
   15          1             0       -2.557932   -0.954886   -0.887721
 ---------------------------------------------------------------------
 Rotational constants (GHZ):     18.0949011      1.9588813      1.8495050
 Standard basis: 3-21G* (6D, 7F)
 There are    65 symmetry adapted basis functions of A   symmetry.
 Integral buffers will be    262144 words long.
 Raffenetti 2 integral format.
 Two-electron integral symmetry is turned on.
    65 basis functions,   105 primitive gaussians,    65 cartesian basis functions
    21 alpha electrons       21 beta electrons
       nuclear repulsion energy       183.3868557117 Hartrees.
 NAtoms=   15 NActive=   15 NUniq=   15 SFac= 1.00D+00 NAtFMM=   60 Big=F
 One-electron integrals computed using PRISM.
 NBasis=    65 RedAO= T  NBF=    65
 NBsUse=    65 1.00D-06 NBFU=    65
 Initial guess read from the read-write file:
 Initial guess orbital symmetries:
       Occupied  (A) (A) (A) (A) (A) (A) (A) (A) (A) (A) (A) (A)
                 (A) (A) (A) (A) (A) (A) (A) (A) (A)
       Virtual   (A) (A) (A) (A) (A) (A) (A) (A) (A) (A) (A) (A)
                 (A) (A) (A) (A) (A) (A) (A) (A) (A) (A) (A) (A)
                 (A) (A) (A) (A) (A) (A) (A) (A) (A) (A) (A) (A)
                 (A) (A) (A) (A) (A) (A) (A) (A)
 Requested convergence on RMS density matrix=1.00D-08 within 128 cycles.
 Requested convergence on MAX density matrix=1.00D-06.
 Requested convergence on             energy=1.00D-06.
 No special actions if energy rises.
 Keep R1 integrals in memory in canonical form, NReq=     2997215.
 SCF Done:  E(RB+HF-LYP) =  -232.384372875     A.U. after   13 cycles
             Convg  =    0.2133D-08             -V/T =  2.0088
             S**2   =   0.0000
 ***** Axes restored to original set *****
 -------------------------------------------------------------------
 Center     Atomic                   Forces (Hartrees/Bohr)
 Number     Number              X              Y              Z
 -------------------------------------------------------------------
    1          6           0.000100199    0.000032597    0.000071876
    2          1           0.000025111   -0.000071062   -0.000120127
    3          1          -0.000108573   -0.000071346    0.000059736
    4          6           0.000044168   -0.000595052    0.000033353
    5          1           0.000124095    0.000076554   -0.000039237
    6          1           0.000000728    0.000076215    0.000130072
    7          6           0.001065068    0.001079126    0.000778938
    8          1          -0.000384976    0.000000176   -0.000030590
    9          1          -0.000145852   -0.000000053   -0.000357912
   10          8          -0.000301454   -0.001380846   -0.000221742
   11          1          -0.000304336    0.000857703   -0.000221171
   12          6          -0.000191701    0.000112790   -0.000138167
   13          1           0.000264548    0.000053824   -0.000113461
   14          1          -0.000160274   -0.000225239   -0.000116873
   15          1          -0.000026753    0.000054615    0.000285303
 -------------------------------------------------------------------
 Cartesian Forces:  Max     0.001380846 RMS     0.000392063

 GradGradGradGradGradGradGradGradGradGradGradGradGradGradGradGradGradGrad
 Berny optimization.
 Internal  Forces:  Max     0.000935032 RMS     0.000200636
 Search for a local minimum.
 Step number   4 out of a maximum of  79
 All quantities printed in internal units (Hartrees-Bohrs-Radians)
 Update second derivatives using D2CorX and points  1  2  3  4
 Trust test= 1.12D+00 RLast= 2.20D-02 DXMaxT set to 4.24D-01
     Eigenvalues ---    0.00237   0.00396   0.00523   0.01639   0.03566
     Eigenvalues ---    0.03669   0.04786   0.04885   0.05454   0.05525
     Eigenvalues ---    0.05556   0.05629   0.08095   0.08434   0.11388
     Eigenvalues ---    0.12108   0.12165   0.13516   0.14702   0.16000
     Eigenvalues ---    0.16023   0.17211   0.21811   0.21921   0.23263
     Eigenvalues ---    0.28124   0.29954   0.31007   0.34137   0.34888
     Eigenvalues ---    0.35218   0.35220   0.35304   0.35475   0.37187
     Eigenvalues ---    0.37226   0.37230   0.41479   0.583461000.00000
     Eigenvalues --- 1000.000001000.000001000.000001000.000001000.00000
     Eigenvalues --- 1000.000001000.000001000.000001000.000001000.00000
     Eigenvalues --- 1000.000001000.000001000.000001000.000001000.00000
     Eigenvalues --- 1000.000001000.000001000.000001000.000001000.00000
     Eigenvalues --- 1000.000001000.000001000.000001000.000001000.00000
     Eigenvalues --- 1000.000001000.000001000.000001000.00000
 RFO step:  Lambda=-8.24554695D-06.
 Quartic linear search produced a step of  0.13525.
 Iteration  1 RMS(Cart)=  0.00102528 RMS(Int)=  0.00000107
 Iteration  2 RMS(Cart)=  0.00000148 RMS(Int)=  0.00000061
 Iteration  3 RMS(Cart)=  0.00000000 RMS(Int)=  0.00000061
 Variable       Old X    -DE/DX   Delta X   Delta X   Delta X     New X
                                 (Linear)    (Quad)   (Total)
    R1        2.07590  -0.00012  -0.00010  -0.00026  -0.00036   2.07555
    R2        2.07591  -0.00012  -0.00010  -0.00026  -0.00036   2.07555
    R3        2.91355  -0.00016   0.00038  -0.00061  -0.00023   2.91331
    R4        2.91734   0.00007  -0.00088   0.00032  -0.00057   2.91678
    R5        2.07210  -0.00013  -0.00024  -0.00026  -0.00050   2.07160
    R6        2.07210  -0.00013  -0.00024  -0.00026  -0.00050   2.07160
    R7        2.89386  -0.00053  -0.00012  -0.00177  -0.00189   2.89197
    R8        2.08394  -0.00036  -0.00043  -0.00096  -0.00138   2.08255
    R9        2.08394  -0.00036  -0.00043  -0.00096  -0.00139   2.08255
   R10        2.75715   0.00090   0.00142   0.00210   0.00352   2.76068
   R11        1.88226  -0.00094   0.00046  -0.00155  -0.00109   1.88117
   R12        2.07223  -0.00028  -0.00017  -0.00062  -0.00079   2.07144
   R13        2.07108  -0.00030  -0.00019  -0.00067  -0.00086   2.07021
   R14        2.07223  -0.00028  -0.00017  -0.00062  -0.00079   2.07144
    A1        1.87025  -0.00003  -0.00012  -0.00026  -0.00038   1.86987
    A2        1.90850  -0.00002  -0.00021  -0.00050  -0.00071   1.90779
    A3        1.90925   0.00007   0.00015   0.00085   0.00100   1.91024
    A4        1.90850  -0.00002  -0.00021  -0.00050  -0.00071   1.90779
    A5        1.90925   0.00007   0.00016   0.00085   0.00100   1.91025
    A6        1.95611  -0.00008   0.00022  -0.00043  -0.00021   1.95590
    A7        1.92463  -0.00004   0.00009  -0.00059  -0.00050   1.92413
    A8        1.92463  -0.00004   0.00009  -0.00059  -0.00051   1.92412
    A9        1.96117  -0.00003   0.00031  -0.00039  -0.00008   1.96109
   A10        1.87636   0.00000   0.00029  -0.00005   0.00023   1.87659
   A11        1.88724   0.00006  -0.00040   0.00085   0.00045   1.88769
   A12        1.88725   0.00006  -0.00039   0.00085   0.00045   1.88770
   A13        1.90813   0.00004   0.00021   0.00029   0.00051   1.90864
   A14        1.90813   0.00004   0.00021   0.00029   0.00051   1.90864
[...]
 ! R4    R(1,12)                 1.5435         -DE/DX =    0.0001              !
 ! R5    R(4,5)                  1.0962         -DE/DX =    0.0                 !
 ! R6    R(4,6)                  1.0962         -DE/DX =    0.0                 !
 ! R7    R(4,7)                  1.5304         -DE/DX =    0.0                 !
 ! R8    R(7,8)                  1.102          -DE/DX =    0.0                 !
 ! R9    R(7,9)                  1.102          -DE/DX =    0.0                 !
 ! R10   R(7,10)                 1.4609         -DE/DX =    0.0002              !
 ! R11   R(10,11)                0.9955         -DE/DX =   -0.0004              !
 ! R12   R(12,13)                1.0962         -DE/DX =    0.0                 !
 ! R13   R(12,14)                1.0955         -DE/DX =    0.0                 !
 ! R14   R(12,15)                1.0962         -DE/DX =    0.0                 !
 ! A1    A(2,1,3)              107.1357         -DE/DX =    0.0                 !
 ! A2    A(2,1,4)              109.3081         -DE/DX =    0.0                 !
 ! A3    A(2,1,12)             109.4489         -DE/DX =    0.0                 !
 ! A4    A(3,1,4)              109.3084         -DE/DX =    0.0                 !
 ! A5    A(3,1,12)             109.4492         -DE/DX =    0.0                 !
 ! A6    A(4,1,12)             112.0646         -DE/DX =    0.0                 !
 ! A7    A(1,4,5)              110.2443         -DE/DX =    0.0                 !
 ! A8    A(1,4,6)              110.2442         -DE/DX =    0.0                 !
 ! A9    A(1,4,7)              112.3623         -DE/DX =    0.0001              !
 ! A10   A(5,4,6)              107.5207         -DE/DX =    0.0                 !
 ! A11   A(5,4,7)              108.1568         -DE/DX =    0.0                 !
 ! A12   A(6,4,7)              108.157          -DE/DX =    0.0                 !
 ! A13   A(4,7,8)              109.3569         -DE/DX =    0.0                 !
 ! A14   A(4,7,9)              109.357          -DE/DX =    0.0                 !
 ! A15   A(4,7,10)             106.0451         -DE/DX =    0.0                 !
 ! A16   A(8,7,9)              107.7439         -DE/DX =    0.0                 !
 ! A17   A(8,7,10)             112.148          -DE/DX =    0.0                 !
 ! A18   A(9,7,10)             112.1477         -DE/DX =    0.0                 !
 ! A19   A(7,10,11)            107.7783         -DE/DX =    0.0001              !
 ! A20   A(1,12,13)            110.4927         -DE/DX =   -0.0001              !
 ! A21   A(1,12,14)            111.1158         -DE/DX =    0.0                 !
 ! A22   A(1,12,15)            110.4925         -DE/DX =   -0.0001              !
 ! A23   A(13,12,14)           108.2849         -DE/DX =    0.0                 !
 ! A24   A(13,12,15)           108.072          -DE/DX =    0.0001              !
 ! A25   A(14,12,15)           108.2848         -DE/DX =    0.0                 !
 ! D1    D(2,1,4,5)             62.2356         -DE/DX =    0.0                 !
 ! D2    D(2,1,4,6)           -179.2085         -DE/DX =    0.0                 !
 ! D3    D(2,1,4,7)            -58.4863         -DE/DX =    0.0                 !
 ! D4    D(3,1,4,5)            179.2074         -DE/DX =    0.0                 !
 ! D5    D(3,1,4,6)            -62.2367         -DE/DX =    0.0                 !
 ! D6    D(3,1,4,7)             58.4855         -DE/DX =    0.0                 !
 ! D7    D(12,1,4,5)           -59.2782         -DE/DX =    0.0                 !
 ! D8    D(12,1,4,6)            59.2777         -DE/DX =    0.0                 !
 ! D9    D(12,1,4,7)          -180.0001         -DE/DX =    0.0                 !
 ! D10   D(2,1,12,13)          -61.6538         -DE/DX =    0.0                 !
 ! D11   D(2,1,12,14)           58.57           -DE/DX =    0.0                 !
 ! D12   D(2,1,12,15)          178.7936         -DE/DX =    0.0                 !
 ! D13   D(3,1,12,13)         -178.7874         -DE/DX =    0.0                 !
 ! D14   D(3,1,12,14)          -58.5636         -DE/DX =    0.0                 !
 ! D15   D(3,1,12,15)           61.66           -DE/DX =    0.0                 !
 ! D16   D(4,1,12,13)           59.7791         -DE/DX =    0.0                 !
 ! D17   D(4,1,12,14)          180.0029         -DE/DX =    0.0                 !
 ! D18   D(4,1,12,15)          -59.7735         -DE/DX =    0.0                 !
 ! D19   D(1,4,7,8)            -58.8825         -DE/DX =    0.0                 !
 ! D20   D(1,4,7,9)             58.8792         -DE/DX =    0.0                 !
 ! D21   D(1,4,7,10)           179.9982         -DE/DX =    0.0                 !
 ! D22   D(5,4,7,8)            179.2007         -DE/DX =    0.0                 !
 ! D23   D(5,4,7,9)            -63.0375         -DE/DX =    0.0                 !
 ! D24   D(5,4,7,10)            58.0815         -DE/DX =    0.0                 !
 ! D25   D(6,4,7,8)             63.0343         -DE/DX =    0.0                 !
 ! D26   D(6,4,7,9)           -179.204          -DE/DX =    0.0                 !
 ! D27   D(6,4,7,10)           -58.085          -DE/DX =    0.0                 !
 ! D28   D(4,7,10,11)          179.9925         -DE/DX =    0.0                 !
 ! D29   D(8,7,10,11)           60.6897         -DE/DX =    0.0                 !
 ! D30   D(9,7,10,11)          -60.7048         -DE/DX =    0.0                 !
 --------------------------------------------------------------------------------
 GradGradGradGradGradGradGradGradGradGradGradGradGradGradGradGradGradGrad

                          Input orientation:                          
 ---------------------------------------------------------------------
 Center     Atomic     Atomic              Coordinates (Angstroms)
 Number     Number      Type              X           Y           Z
 ---------------------------------------------------------------------
    1          6             0       -0.004698    0.012226   -0.003163
    2          1             0       -0.000614   -0.031297    1.094299
    3          1             0        1.042151   -0.031192   -0.332645
    4          6             0       -0.765051   -1.208325   -0.558889
    5          1             0       -1.809700   -1.187706   -0.227172
    6          1             0       -0.766354   -1.187593   -1.654937
    7          6             0       -0.147506   -2.533879   -0.107716
    8          1             0        0.900850   -2.581679   -0.444102
    9          1             0       -0.149471   -2.581765    0.993281
   10          8             0       -0.966429   -3.585260   -0.706175
   11          1             0       -0.585895   -4.462158   -0.428318
   12          6             0       -0.633138    1.345125   -0.462302
   13          1             0       -1.673200    1.415861   -0.123441
   14          1             0       -0.081276    2.201252   -0.059023
   15          1             0       -0.626327    1.415921   -1.556150
 ---------------------------------------------------------------------
                    Distance matrix (angstroms):
                    1          2          3          4          5
     1  C    0.000000
     2  H    1.098332   0.000000
     3  H    1.098333   1.767350   0.000000
     4  C    1.541659   2.168591   2.168595   0.000000
     5  H    2.179002   2.521182   3.079237   1.096245   0.000000
     6  H    2.179000   3.079233   2.521192   1.096244   1.768356
     7  C    2.552248   2.780167   2.780165   1.530364   2.142275
     8  H    2.782586   3.111874   2.556829   2.162060   3.055700
     9  H    2.782561   2.556804   3.111827   2.162062   2.487824
    10  O    3.789598   4.099409   4.099429   2.389993   2.586275
    11  H    4.531960   4.721593   4.721563   3.261377   3.501457
    12  C    1.543491   2.172011   2.172015   2.558678   2.802644
    13  H    2.183703   2.524817   3.083968   2.810818   2.609205
    14  H    2.191077   2.514147   2.514112   3.513207   3.807986
    15  H    2.183701   3.083964   2.524860   2.810772   3.153637
                    6          7          8          9         10
     6  H    0.000000
     7  C    2.142278   0.000000
     8  H    2.487804   1.102039   0.000000
     9  H    3.055703   1.102039   1.780237   0.000000
    10  O    2.586307   1.460887   2.136021   2.136018   0.000000
    11  H    3.501420   2.003306   2.397261   2.397351   0.995471
    12  C    2.802638   3.925333   4.215832   4.215818   4.947651
    13  H    3.153699   4.234198   4.765384   4.421519   5.084320
    14  H    3.807957   4.735844   4.897886   4.897882   5.889484
    15  H    2.609147   4.234164   4.421507   4.765342   5.084283
                   11         12         13         14         15
    11  H    0.000000
    12  C    5.807575   0.000000
    13  H    5.985507   1.096157   0.000000
    14  H    6.692687   1.095509   1.776292   0.000000
    15  H    5.985437   1.096157   1.774429   1.776292   0.000000
 Stoichiometry    C4H10O
 Framework group  C1[X(C4H10O)]
 Deg. of freedom    39
 Full point group                 C1      NOp   1
 Largest Abelian subgroup         C1      NOp   1
 Largest concise Abelian subgroup C1      NOp   1
                         Standard orientation:                         
 ---------------------------------------------------------------------
 Center     Atomic     Atomic              Coordinates (Angstroms)
 Number     Number      Type              X           Y           Z
 ---------------------------------------------------------------------
    1          6             0       -1.235288    0.538881    0.000009
    2          1             0       -1.228282    1.191090    0.883699
    3          1             0       -1.228287    1.191132   -0.883651
    4          6             0        0.036026   -0.333171   -0.000011
    5          1             0        0.051615   -0.981057    0.884158
    6          1             0        0.051604   -0.981030   -0.884198
    7          6             0        1.316730    0.504569   -0.000002
    8          1             0        1.328267    1.154213   -0.890126
    9          1             0        1.328248    1.154228    0.890111
   10          8             0        2.423194   -0.449333    0.000021
   11          1             0        3.272368    0.070154   -0.000098
   12          6             0       -2.522571   -0.312745   -0.000003
   13          1             0       -2.557463   -0.955528    0.887225
   14          1             0       -3.415586    0.321813   -0.000040
   15          1             0       -2.557418   -0.955567   -0.887204
 ---------------------------------------------------------------------
 Rotational constants (GHZ):     18.0775926      1.9601672      1.8504342

 **********************************************************************

            Population analysis using the SCF density.

 **********************************************************************

 Orbital symmetries:
       Occupied  (A) (A) (A) (A) (A) (A) (A) (A) (A) (A) (A) (A)
                 (A) (A) (A) (A) (A) (A) (A) (A) (A)
       Virtual   (A) (A) (A) (A) (A) (A) (A) (A) (A) (A) (A) (A)
                 (A) (A) (A) (A) (A) (A) (A) (A) (A) (A) (A) (A)
                 (A) (A) (A) (A) (A) (A) (A) (A) (A) (A) (A) (A)
                 (A) (A) (A) (A) (A) (A) (A) (A)
 The electronic state is 1-A.
 Alpha  occ. eigenvalues --  -19.01524 -10.16118 -10.11603 -10.10837 -10.10638
 Alpha  occ. eigenvalues --   -0.99199  -0.78939  -0.71437  -0.61926  -0.57641
 Alpha  occ. eigenvalues --   -0.48702  -0.47700  -0.42680  -0.42197  -0.39181
 Alpha  occ. eigenvalues --   -0.36002  -0.34115  -0.33134  -0.32344  -0.30331
 Alpha  occ. eigenvalues --   -0.24371
 Alpha virt. eigenvalues --    0.09703   0.11652   0.14978   0.15094   0.17115
 Alpha virt. eigenvalues --    0.19441   0.20265   0.20703   0.21867   0.21879
 Alpha virt. eigenvalues --    0.23132   0.25604   0.28214   0.29912   0.68189
 Alpha virt. eigenvalues --    0.68711   0.68764   0.74783   0.76048   0.77802
 Alpha virt. eigenvalues --    0.79687   0.82321   0.87334   0.87888   0.95622
 Alpha virt. eigenvalues --    0.95653   0.98856   1.03689   1.06776   1.08008
 Alpha virt. eigenvalues --    1.10441   1.10882   1.12875   1.13876   1.15741
 Alpha virt. eigenvalues --    1.29911   1.59095   1.61781   1.64435   1.82461
 Alpha virt. eigenvalues --    1.89233   2.03998   2.30186   3.01700
          Condensed to atoms (all electrons):
              1          2          3          4          5          6
     1  C    5.380844   0.369311   0.369312   0.234231  -0.039002  -0.039001
     2  H    0.369311   0.562609  -0.032751  -0.044719  -0.003264   0.003855
     3  H    0.369312  -0.032751   0.562610  -0.044719   0.003855  -0.003264
     4  C    0.234231  -0.044719  -0.044719   5.457710   0.361701   0.361699
     5  H   -0.039002  -0.003264   0.003855   0.361701   0.545170  -0.031330
     6  H   -0.039001   0.003855  -0.003264   0.361699  -0.031330   0.545172
     7  C   -0.056009  -0.001996  -0.001996   0.249098  -0.040992  -0.040991
     8  H    0.001813  -0.000415   0.004499  -0.051916   0.005060  -0.006115
     9  H    0.001814   0.004500  -0.000416  -0.051922  -0.006115   0.005060
    10  O    0.001427  -0.000011  -0.000011  -0.041542   0.003325   0.003325
    11  H   -0.000201   0.000002   0.000002   0.005910  -0.000086  -0.000086
    12  C    0.285974  -0.040877  -0.040876  -0.062601  -0.001525  -0.001526
    13  H   -0.042383  -0.002796   0.003629  -0.002064   0.003575  -0.000194
    14  H   -0.036040  -0.001726  -0.001727   0.003334  -0.000009  -0.000009
    15  H   -0.042384   0.003629  -0.002795  -0.002064  -0.000194   0.003576
              7          8          9         10         11         12
     1  C   -0.056009   0.001813   0.001814   0.001427  -0.000201   0.285974
     2  H   -0.001996  -0.000415   0.004500  -0.000011   0.000002  -0.040877
     3  H   -0.001996   0.004499  -0.000416  -0.000011   0.000002  -0.040876
     4  C    0.249098  -0.051916  -0.051922  -0.041542   0.005910  -0.062601
     5  H   -0.040992   0.005060  -0.006115   0.003325  -0.000086  -0.001525
     6  H   -0.040991  -0.006115   0.005060   0.003325  -0.000086  -0.001526
     7  C    5.148984   0.328635   0.328636   0.255775  -0.041933   0.003407
     8  H    0.328635   0.646039  -0.056035  -0.033732  -0.002904  -0.000066
     9  H    0.328636  -0.056035   0.646041  -0.033735  -0.002901  -0.000066
    10  O    0.255775  -0.033732  -0.033735   8.156963   0.240034  -0.000009
    11  H   -0.041933  -0.002904  -0.002901   0.240034   0.470752   0.000001
    12  C    0.003407  -0.000066  -0.000066  -0.000009   0.000001   5.303649
    13  H   -0.000017   0.000003   0.000003   0.000000   0.000000   0.367632
    14  H   -0.000082   0.000002   0.000002   0.000000   0.000000   0.366623
    15  H   -0.000017   0.000003   0.000003   0.000000   0.000000   0.367632
             13         14         15
     1  C   -0.042383  -0.036040  -0.042384
     2  H   -0.002796  -0.001726   0.003629
     3  H    0.003629  -0.001727  -0.002795
     4  C   -0.002064   0.003334  -0.002064
     5  H    0.003575  -0.000009  -0.000194
     6  H   -0.000194  -0.000009   0.003576
     7  C   -0.000017  -0.000082  -0.000017
     8  H    0.000003   0.000002   0.000003
     9  H    0.000003   0.000002   0.000003
    10  O    0.000000   0.000000   0.000000
    11  H    0.000000   0.000000   0.000000
    12  C    0.367632   0.366623   0.367632
    13  H    0.541379  -0.027686  -0.028913
    14  H   -0.027686   0.539762  -0.027686
    15  H   -0.028913  -0.027686   0.541380
 Mulliken atomic charges:
              1
     1  C   -0.389706
     2  H    0.184649
     3  H    0.184648
     4  C   -0.372137
     5  H    0.199831
     6  H    0.199828
     7  C   -0.130504
     8  H    0.165129
     9  H    0.165130
    10  O   -0.551810
    11  H    0.331409
    12  C   -0.547372
    13  H    0.187831
    14  H    0.185242
    15  H    0.187831
 Sum of Mulliken charges=   0.00000
 Atomic charges with hydrogens summed into heavy atoms:
              1
     1  C   -0.020409
     2  H    0.000000
     3  H    0.000000
     4  C    0.027523
     5  H    0.000000
     6  H    0.000000
     7  C    0.199755
     8  H    0.000000
     9  H    0.000000
    10  O   -0.220400
    11  H    0.000000
    12  C    0.013532
    13  H    0.000000
    14  H    0.000000
    15  H    0.000000
 Sum of Mulliken charges=   0.00000
 Electronic spatial extent (au):  <R**2>=   673.3690
 Charge=     0.0000 electrons
 Dipole moment (field-independent basis, Debye):
    X=     0.1976    Y=     1.6157    Z=    -0.0002  Tot=     1.6277
 Quadrupole moment (field-independent basis, Debye-Ang):
   XX=   -29.3853   YY=   -33.9437   ZZ=   -32.9792
   XY=     4.1563   XZ=    -0.0008   YZ=     0.0000
 Traceless Quadrupole moment (field-independent basis, Debye-Ang):
   XX=     2.7174   YY=    -1.8410   ZZ=    -0.8764
   XY=     4.1563   XZ=    -0.0008   YZ=     0.0000
 Octapole moment (field-independent basis, Debye-Ang**2):
  XXX=    36.2524  YYY=    -1.6245  ZZZ=     0.0000  XYY=     2.1188
  XXY=    10.4001  XXZ=    -0.0024  XZZ=     3.4403  YZZ=    -0.8389
  YYZ=     0.0000  XYZ=     0.0001
 Hexadecapole moment (field-independent basis, Debye-Ang**3):
 XXXX=  -585.8470 YYYY=  -105.3391 ZZZZ=   -57.6782 XXXY=    16.8177
 XXXZ=    -0.0076 YYYX=    -3.2355 YYYZ=    -0.0002 ZZZX=    -0.0004
 ZZZY=     0.0000 XXYY=  -137.6120 XXZZ=  -127.0810 YYZZ=   -24.4210
 XXYZ=    -0.0002 YYXZ=     0.0000 ZZXY=     0.2585
 N-N= 1.834138828687D+02 E-N=-9.076205747353D+02  KE= 2.303730790686D+02
 Final structure in terms of initial Z-matrix:
 C
 H,1,B1
 H,1,B2,2,A1
 C,1,B3,3,A2,2,D1,0
 H,4,B4,1,A3,3,D2,0
 H,4,B5,1,A4,3,D3,0
 C,4,B6,1,A5,3,D4,0
 H,7,B7,4,A6,1,D5,0
 H,7,B8,4,A7,1,D6,0
 O,7,B9,4,A8,1,D7,0
 H,10,B10,7,A9,4,D8,0
 C,1,B11,4,A10,7,D9,0
 H,12,B12,1,A11,4,D10,0
 H,12,B13,1,A12,4,D11,0
 H,12,B14,1,A13,4,D12,0
      Variables:
 B1=1.09833236
 B2=1.09833265
 B3=1.54165859
 B4=1.09624485
 B5=1.09624438
 B6=1.5303637
 B7=1.10203906
 B8=1.10203945
 B9=1.46088705
 B10=0.99547086
 B11=1.54349148
 B12=1.09615712
 B13=1.095509
 B14=1.09615725
 A1=107.13567699
 A2=109.30843574
 A3=110.24428329
 A4=110.24418085
 A5=112.36232102
 A6=109.35693657
 A7=109.35701328
 A8=106.04512076
 A9=107.77834851
 A10=112.06462739
 A11=110.49267949
 A12=111.11581425
 A13=110.49250302
 D1=-118.33678063
 D2=179.20739408
 D3=-62.23670425
 D4=58.48546737
 D5=-58.88253024
 D6=58.87921102
 D7=179.99822848
 D8=179.99246619
 D9=179.99986844
 D10=59.77910728
 D11=-179.99713255
 D12=-59.77350426
 1|1|UNPC-UNK|FOpt|RB3LYP|3-21G*|C4H10O1|PCUSER|23-Sep-2020|0||# OPT B3
 LYP/3-21G* GEOM=CONNECTIVITY||Title Card Required||0,1|C,0.4901503513,
 1.203215003,0.358265998|H,0.4942339095,1.1596919754,1.4557280877|H,1.5
 369987542,1.1597977485,0.0287846114|C,-0.2702027255,-0.0173353047,-0.1
 974599844|H,-1.3148517374,0.0032837394,0.1342568647|H,-0.2715061563,0.
 0033966678,-1.293507532|C,0.347342314,-1.342889292,0.2537138106|H,1.39
 56979796,-1.3906900866,-0.0826722341|H,0.3453775207,-1.3907753586,1.35
 47106383|O,-0.471580573,-2.3942704832,-0.3447457571|H,-0.0910466032,-3
 .2711692006,-0.0668882896|C,-0.1382900263,2.536114062,-0.1008731416|H,
 -1.1783523647,2.6068501398,0.2379884521|H,0.4135725017,3.3922412168,0.
 3024059442|H,-0.1314787011,2.6069102141,-1.1947205813||Version=x86-Win
 32-G03RevB.05|State=1-A|HF=-232.384378|RMSD=1.573e-009|RMSF=1.147e-004
 |Dipole=0.5089696,-0.1131647,0.3718011|PG=C01 [X(C4H10O1)]||@


 THOSE WHO TRY TO PASS CHEMISTRY OFF AS A NEW SCIENCE
 SHOW HOW LITTLE KNOWLEDGE THEY HAVE OF THE CHARACTER
 AND LITERATURE OF THE ANCIENTS.
   -- NICOLAS LEFEVRE
 "COURS DE CHYMIE" J.-N.LELOUP, PARIS, 1751
 Job cpu time:  0 days  0 hours  1 minutes  1.0 seconds.
 File lengths (MBytes):  RWF=     16 Int=      0 D2E=      0 Chk=      8 Scr=      1
 Normal termination of Gaussian 03 at Wed Sep 23 12:53:40 2020.
