 Entering Gaussian System, Link 0=/lustre1/lhlai_pkuhpc/wlzhang/MD/g09/g09
 Input=3.gjf
 Output=3.log
 Initial command:
 /lustre1/lhlai_pkuhpc/wlzhang/MD/g09/l1.exe "/lustre1/lhlai_pkuhpc/ljr/physchemlab/tddft/Gau-30838.inp" -scrdir="/lustre1/lhlai_pkuhpc/ljr/physchemlab/tddft/"
 Default is to use a total of  28 processors:
                               28 via shared-memory
                                1 via Linda
 Entering Link 1 = /lustre1/lhlai_pkuhpc/wlzhang/MD/g09/l1.exe PID=     30839.
  
 Copyright (c) 1988,1990,1992,1993,1995,1998,2003,2009,2013,
            Gaussian, Inc.  All Rights Reserved.
  
 This is part of the Gaussian(R) 09 program.  It is based on
 the Gaussian(R) 03 system (copyright 2003, Gaussian, Inc.),
 the Gaussian(R) 98 system (copyright 1998, Gaussian, Inc.),
 the Gaussian(R) 94 system (copyright 1995, Gaussian, Inc.),
 the Gaussian 92(TM) system (copyright 1992, Gaussian, Inc.),
 the Gaussian 90(TM) system (copyright 1990, Gaussian, Inc.),
 the Gaussian 88(TM) system (copyright 1988, Gaussian, Inc.),
 the Gaussian 86(TM) system (copyright 1986, Carnegie Mellon
 University), and the Gaussian 82(TM) system (copyright 1983,
 Carnegie Mellon University). Gaussian is a federally registered
 trademark of Gaussian, Inc.
  
 This software contains proprietary and confidential information,
 including trade secrets, belonging to Gaussian, Inc.
  
 This software is provided under written license and may be
 used, copied, transmitted, or stored only in accord with that
 written license.
  
 The following legend is applicable only to US Government
 contracts under FAR:
  
                    RESTRICTED RIGHTS LEGEND
  
 Use, reproduction and disclosure by the US Government is
 subject to restrictions as set forth in subparagraphs (a)
 and (c) of the Commercial Computer Software - Restricted
 Rights clause in FAR 52.227-19.
  
 Gaussian, Inc.
 340 Quinnipiac St., Bldg. 40, Wallingford CT 06492
  
  
 ---------------------------------------------------------------
 Warning -- This program may not be used in any manner that
 competes with the business of Gaussian, Inc. or will provide
 assistance to any competitor of Gaussian, Inc.  The licensee
 of this program is prohibited from giving any competitor of
 Gaussian, Inc. access to this program.  By using this program,
 the user acknowledges that Gaussian, Inc. is engaged in the
 business of creating and licensing software in the field of
 computational chemistry and represents and warrants to the
 licensee that it is not a competitor of Gaussian, Inc. and that
 it will not use this program in any manner prohibited above.
 ---------------------------------------------------------------
  

 Cite this work as:
 Gaussian 09, Revision D.01,
 M. J. Frisch, G. W. Trucks, H. B. Schlegel, G. E. Scuseria, 
 M. A. Robb, J. R. Cheeseman, G. Scalmani, V. Barone, B. Mennucci, 
 G. A. Petersson, H. Nakatsuji, M. Caricato, X. Li, H. P. Hratchian, 
 A. F. Izmaylov, J. Bloino, G. Zheng, J. L. Sonnenberg, M. Hada, 
 M. Ehara, K. Toyota, R. Fukuda, J. Hasegawa, M. Ishida, T. Nakajima, 
 Y. Honda, O. Kitao, H. Nakai, T. Vreven, J. A. Montgomery, Jr., 
 J. E. Peralta, F. Ogliaro, M. Bearpark, J. J. Heyd, E. Brothers, 
 K. N. Kudin, V. N. Staroverov, T. Keith, R. Kobayashi, J. Normand, 
 K. Raghavachari, A. Rendell, J. C. Burant, S. S. Iyengar, J. Tomasi, 
 M. Cossi, N. Rega, J. M. Millam, M. Klene, J. E. Knox, J. B. Cross, 
 V. Bakken, C. Adamo, J. Jaramillo, R. Gomperts, R. E. Stratmann, 
 O. Yazyev, A. J. Austin, R. Cammi, C. Pomelli, J. W. Ochterski, 
 R. L. Martin, K. Morokuma, V. G. Zakrzewski, G. A. Voth, 
 P. Salvador, J. J. Dannenberg, S. Dapprich, A. D. Daniels, 
 O. Farkas, J. B. Foresman, J. V. Ortiz, J. Cioslowski, 
 and D. J. Fox, Gaussian, Inc., Wallingford CT, 2013.
 
 ******************************************
 Gaussian 09:  AM64L-G09RevD.01 24-Apr-2013
                30-Oct-2020 
 ******************************************
 %nprocshared=20
 Will use up to   20 processors via shared memory.
 %mem=20GB
 -------------------------
 # td PBE1PBE/6-311g(2d,p)
 -------------------------
 1/38=1/1;
 2/12=2,17=6,18=5,40=1/2;
 3/5=4,6=6,7=102,11=9,16=1,25=1,30=1,74=-13/1,2,8,3;
 4//1;
 5/5=2,38=5/2;
 8/6=1,10=2/1;
 9/42=1,70=2/14;
 6/7=2,8=2,9=2,10=2/1;
 99/5=1,9=1/99;
 -
 3
 -
 Symbolic Z-matrix:
 Charge =  1 Multiplicity = 1
 C                     5.5986   -1.34109  -0.00706 
 C                     6.47249  -2.42243  -0.01189 
 C                     7.84758  -2.15923  -0.01329 
 C                     8.31563  -0.8373   -0.01 
 C                     7.43052   0.24554  -0.00508 
 C                     6.05179  -0.01427  -0.00337 
 N                     5.00867   0.95334   0.0017 
 C                     3.73598   0.44066   0.00063 
 S                     3.78436  -1.39398  -0.00484 
 C                    -3.75793   0.70226   0.00122 
 S                    -5.01518   2.01165  -0.00627 
 C                    -6.31251   0.74987  -0.008 
 C                    -5.76546  -0.5492   -0.00267 
 N                    -4.33685  -0.54551   0.00433 
 C                     5.46386   2.38445   0.00682 
 C                     4.44273   3.51883   0.02309 
 C                    -3.40952  -1.72043   0.01686 
 C                    -3.97753  -3.13793   0.04325 
 C                    -7.68254   0.99414  -0.01461 
 C                    -8.55073  -0.09938  -0.01652 
 C                    -8.02994  -1.40082  -0.01221 
 C                    -6.6534   -1.64013  -0.00547 
 C                    -1.19274   0.44854   0.00179 
 C                    -2.4208    1.12329   0.00308 
 C                     2.50826   1.10398   0.00268 
 C                     1.26507   0.46137   0.0013 
 C                     0.03545   1.12252   0.00337 
 H                     6.10137  -3.44036  -0.01461 
 H                     8.55071  -2.98386  -0.01708 
 H                     9.38229  -0.64491  -0.01137 
 H                     7.81999   1.25452  -0.003 
 H                     6.09755   2.49358  -0.8807 
 H                     6.11076   2.48177   0.88606 
 H                     5.01177   4.45482   0.03006 
 H                     3.81971   3.51533   0.92066 
 H                     3.81154   3.53393  -0.86859 
 H                    -2.77199  -1.58756   0.89793 
 H                    -2.77926  -1.61551  -0.87331 
 H                    -3.1202   -3.8198    0.06035 
 H                    -4.56048  -3.37734  -0.84858 
 H                    -4.56765  -3.34072   0.93951 
 H                    -8.06297   2.00876  -0.01846 
 H                    -9.62237   0.06087  -0.02173 
 H                    -8.70448  -2.24942  -0.01434 
 H                    -6.31051  -2.6589   -0.00306 
 H                    -1.14383  -0.63363  -0.0017 
 H                    -2.33064   2.2071    0.004 
 H                     2.50125   2.18162   0.00525 
 H                     1.23924  -0.62836  -0.00161 
 H                     0.02942   2.21102   0.00636 
 
                          Input orientation:                          
 ---------------------------------------------------------------------
 Center     Atomic      Atomic             Coordinates (Angstroms)
 Number     Number       Type             X           Y           Z
 ---------------------------------------------------------------------
      1          6           0        5.598601   -1.341094   -0.007061
      2          6           0        6.472492   -2.422432   -0.011892
      3          6           0        7.847580   -2.159226   -0.013286
      4          6           0        8.315634   -0.837298   -0.010001
      5          6           0        7.430522    0.245543   -0.005081
      6          6           0        6.051786   -0.014271   -0.003370
      7          7           0        5.008669    0.953335    0.001698
      8          6           0        3.735978    0.440659    0.000627
      9         16           0        3.784358   -1.393975   -0.004841
     10          6           0       -3.757932    0.702261    0.001220
     11         16           0       -5.015177    2.011654   -0.006267
     12          6           0       -6.312514    0.749865   -0.007997
     13          6           0       -5.765462   -0.549197   -0.002665
     14          7           0       -4.336845   -0.545510    0.004333
     15          6           0        5.463856    2.384446    0.006824
     16          6           0        4.442730    3.518833    0.023090
     17          6           0       -3.409521   -1.720425    0.016855
     18          6           0       -3.977526   -3.137934    0.043250
     19          6           0       -7.682542    0.994144   -0.014610
     20          6           0       -8.550732   -0.099379   -0.016520
     21          6           0       -8.029944   -1.400820   -0.012208
     22          6           0       -6.653400   -1.640134   -0.005468
     23          6           0       -1.192737    0.448543    0.001786
     24          6           0       -2.420801    1.123289    0.003079
     25          6           0        2.508263    1.103976    0.002676
     26          6           0        1.265069    0.461367    0.001302
     27          6           0        0.035449    1.122518    0.003368
     28          1           0        6.101367   -3.440361   -0.014614
     29          1           0        8.550709   -2.983856   -0.017075
     30          1           0        9.382294   -0.644911   -0.011373
     31          1           0        7.819986    1.254521   -0.003004
     32          1           0        6.097547    2.493575   -0.880704
     33          1           0        6.110765    2.481774    0.886059
     34          1           0        5.011773    4.454819    0.030058
     35          1           0        3.819706    3.515333    0.920655
     36          1           0        3.811538    3.533932   -0.868586
     37          1           0       -2.771988   -1.587563    0.897926
     38          1           0       -2.779255   -1.615513   -0.873313
     39          1           0       -3.120195   -3.819797    0.060350
     40          1           0       -4.560476   -3.377342   -0.848580
     41          1           0       -4.567649   -3.340716    0.939512
     42          1           0       -8.062971    2.008762   -0.018462
     43          1           0       -9.622367    0.060872   -0.021732
     44          1           0       -8.704480   -2.249417   -0.014335
     45          1           0       -6.310509   -2.658897   -0.003059
     46          1           0       -1.143829   -0.633631   -0.001701
     47          1           0       -2.330639    2.207101    0.003995
     48          1           0        2.501254    2.181621    0.005248
     49          1           0        1.239239   -0.628356   -0.001612
     50          1           0        0.029416    2.211020    0.006356
 ---------------------------------------------------------------------
                    Distance matrix (angstroms):
                    1          2          3          4          5
     1  C    0.000000
     2  C    1.390324   0.000000
     3  C    2.393175   1.400052   0.000000
     4  C    2.763347   2.431013   1.402348   0.000000
     5  C    2.423501   2.834777   2.440680   1.398568   0.000000
     6  C    1.402088   2.444648   2.797464   2.408822   1.403004
     7  N    2.369072   3.679506   4.212799   3.760654   2.523170
     8  C    2.577609   3.960550   4.864655   4.754633   3.699697
     9  S    1.815015   2.878166   4.134665   4.565345   3.997816
    10  C    9.577060  10.696983  11.953084  12.171334  11.197774
    11  S   11.130732  12.313720  13.522086  13.631840  12.570385
    12  C   12.093253  13.172694  14.455833  14.714000  13.752287
    13  C   11.391622  12.380493  13.707925  14.084045  13.219895
    14  N    9.967255  10.971092  12.290834  12.655851  11.793930
    15  C    3.728002   4.911596   5.131033   4.302622   2.905654
    16  C    4.995582   6.278518   6.620776   5.828924   4.431943
    17  C    9.016137   9.906958  11.265690  11.758397  11.016898
    18  C    9.743376  10.474629  11.865673  12.506700  11.899320
    19  C   13.484886  14.561524  15.847032  16.102666  15.131596
    20  C   14.203717  15.201771  16.527178  16.882502  15.984980
    21  C   13.628677  14.538375  15.895627  16.355289  15.547880
    22  C   12.255650  13.149185  14.510270  14.990549  14.209597
    23  C    7.023187   8.185256   9.408933   9.594928   8.625651
    24  C    8.389523   9.574081  10.780298  10.913987   9.890352
    25  C    3.940641   5.305740   6.257559   6.123256   4.996559
    26  C    4.693446   5.952623   7.084996   7.169179   6.169233
    27  C    6.084255   7.348634   8.473459   8.508967   7.446896
    28  H    2.158646   1.083476   2.165772   3.417446   3.918244
    29  H    3.378418   2.152721   1.083706   2.159403   3.418184
    30  H    3.847210   3.409770   2.156038   1.083872   2.145312
    31  H    3.416399   3.916095   3.413874   2.149749   1.081537
    32  H    3.964453   5.006250   5.046146   4.095455   2.756299
    33  H    3.959078   4.998840   5.036291   4.084190   2.745290
    34  H    5.825663   7.030792   7.196476   6.238878   4.854852
    35  H    5.254523   6.569929   7.021156   6.326522   4.958478
    36  H    5.263240   6.579732   7.030876   6.334959   4.965500
    37  H    8.422975   9.326585  10.673909  11.150004  10.405139
    38  H    8.426991   9.326735  10.675434  11.155603  10.414264
    39  H    9.064542   9.694199  11.093016  11.818563  11.307029
    40  H   10.395254  11.105777  12.495654  13.151017  12.554713
    41  H   10.404188  11.119044  12.507664  13.158558  12.558249
    42  H   14.066279  15.195894  16.447425  16.624044  15.593507
    43  H   15.285405  16.285312  17.610450  17.960477  17.053897
    44  H   14.331896  15.177958  16.552306  17.078594  16.326763
    45  H   11.981800  12.785191  14.166907  14.739143  14.044633
    46  H    6.779447   7.823571   9.119924   9.461659   8.619307
    47  H    8.686924   9.946253  11.075254  11.073016   9.956307
    48  H    4.690760   6.080159   6.886690   6.551421   5.295865
    49  H    4.417246   5.532246   6.783352   7.079484   6.252655
    50  H    6.605567   7.936148   8.956736   8.829152   7.657650
                    6          7          8          9         10
     6  C    0.000000
     7  N    1.422807   0.000000
     8  C    2.360073   1.372072   0.000000
     9  S    2.654207   2.647422   1.835280   0.000000
    10  C    9.835853   8.770196   7.498475   7.828179   0.000000
    11  S   11.250869  10.079563   8.891051   9.435578   1.815277
    12  C   12.387891  11.323015  10.053252  10.321961   2.555042
    13  C   11.829349  10.878397   9.552863   9.587112   2.365658
    14  N   10.402208   9.464945   8.132836   8.165410   1.375530
    15  C    2.469739   1.501766   2.600752   4.134890   9.373961
    16  C    3.882343   2.627266   3.158347   4.956805   8.670895
    17  C    9.613933   8.832618   7.465166   7.201315   2.447661
    18  C   10.504596   9.873799   8.503310   7.955536   3.846698
    19  C   13.771303  12.691287  11.431937  11.712942   3.935481
    20  C   14.602772  13.600217  12.298584  12.402845   4.859411
    21  C   14.149831  13.249440  11.909162  11.814306   4.761640
    22  C   12.808793  11.946966  10.595703  10.440660   3.724325
    23  C    7.259293   6.221917   4.928721   5.307202   2.577712
    24  C    8.548615   7.431414   6.194507   6.696318   1.401851
    25  C    3.715786   2.504940   1.395449   2.805037   6.279059
    26  C    4.810292   3.775788   2.470996   3.128762   5.028774
    27  C    6.122797   4.976097   3.762825   4.515210   3.816590
    28  H    3.426467   4.527562   4.545065   3.091330  10.694267
    29  H    3.881139   5.296024   5.908405   5.024537  12.848752
    30  H    3.389698   4.656518   5.749738   5.647834  13.209109
    31  H    2.176319   2.827408   4.164313   4.827093  11.591083
    32  H    2.657273   2.082457   3.250879   4.607714  10.055698
    33  H    2.650435   2.081546   3.254190   4.607310  10.066816
    34  H    4.588628   3.501600   4.212125   5.976300   9.538881
    35  H    4.277161   2.970177   3.210464   4.995908   8.135068
    36  H    4.284513   2.974895   3.213966   5.003105   8.128456
    37  H    9.008139   8.233955   6.875496   6.621037   2.649427
    38  H    9.017098   8.247205   6.887661   6.624526   2.663586
    39  H    9.930323   9.426805   8.072308   7.318587   4.567189
    40  H   11.164440  10.537849   9.172210   8.618694   4.243748
    41  H   11.168109  10.536804   9.172269   8.627724   4.228676
    42  H   14.259006  13.114195  11.902710  12.326314   4.498966
    43  H   15.674344  14.658249  13.363761  13.485442   5.899450
    44  H   14.924590  14.082199  12.727990  12.518105   5.760294
    45  H   12.642009  11.881584  10.513761  10.173808   4.220551
    46  H    7.222222   6.353873   4.996661   4.986498   2.935669
    47  H    8.671770   7.445628   6.318558   7.096549   2.074058
    48  H    4.174721   2.792101   2.134365   3.798861   6.431635
    49  H    4.851568   4.087831   2.715972   2.657784   5.171293
    50  H    6.420355   5.135636   4.107653   5.205353   4.076811
                   11         12         13         14         15
    11  S    0.000000
    12  C    1.809751   0.000000
    13  C    2.668501   1.409559   0.000000
    14  N    2.645626   2.362502   1.428639   0.000000
    15  C   10.485670  11.889279  11.606202  10.229291   0.000000
    16  C    9.577289  11.106008  10.988936   9.674718   1.526367
    17  C    4.062891   3.811866   2.631086   1.496834   9.776855
    18  C    5.253325   4.535392   3.146487   2.617496  10.937902
    19  C    2.854861   1.391651   2.461146   3.683013  13.219727
    20  C    4.117853   2.393931   2.821393   4.237489  14.233011
    21  C    4.553442   2.752277   2.419345   3.790885  14.014679
    22  C    4.002416   2.414188   1.406622   2.562172  12.768136
    23  C    4.129701   5.128646   4.680312   3.297509   6.932386
    24  C    2.742274   3.909603   3.739519   2.540889   7.984882
    25  C    7.578002   8.827889   8.437271   7.041045   3.221048
    26  C    6.468766   7.583079   7.102790   5.691683   4.618233
    27  C    5.128302   6.358902   6.036989   4.679666   5.573157
    28  H   12.381522  13.102003  12.213951  10.832211   5.859629
    29  H   14.456435  15.325017  14.521726  13.116213   6.192568
    30  H   14.640510  15.756662  15.148061  13.719508   4.952928
    31  H   12.857475  14.141508  13.704663  12.289374   2.613078
    32  H   11.157487  12.562315  12.278453  10.903938   1.095983
    33  H   11.171564  12.575242  12.289076  10.913040   1.095910
    34  H   10.320373  11.915016  11.882342  10.601915   2.119284
    35  H    9.009739  10.543818  10.452194   9.157479   2.194817
    36  H    8.998434  10.535088  10.447042   9.154233   2.194952
    37  H    4.336338   4.338155   3.293957   2.081624   9.186950
    38  H    4.348271   4.339090   3.288235   2.083568   9.204520
    39  H    6.131983   5.574709   4.206927   3.493470  10.591573
    40  H    5.473347   4.561804   3.188411   2.965931  11.593841
    41  H    5.453682   4.546997   3.180414   2.956519  11.587859
    42  H    3.047820   2.156161   3.438306   4.517614  13.532067
    43  H    5.003198   3.380832   3.904903   5.320256  15.264139
    44  H    5.636288   3.836305   3.395396   4.688271  14.906874
    45  H    4.846849   3.408766   2.178970   2.891679  12.809023
    46  H    4.688805   5.350645   4.622404   3.194237   7.264321
    47  H    2.691663   4.240166   4.404002   3.406131   7.796513
    48  H    7.518361   8.929312   8.706091   7.361850   2.969537
    49  H    6.788770   7.676491   7.005148   5.576703   5.188876
    50  H    5.048547   6.508092   6.418683   5.163593   5.437207
                   16         17         18         19         20
    16  C    0.000000
    17  C    9.439688   0.000000
    18  C   10.733763   1.527304   0.000000
    19  C   12.385382   5.062468   5.550186   0.000000
    20  C   13.487886   5.390821   5.490956   1.396263   0.000000
    21  C   13.407902   4.631555   4.409391   2.420030   1.401780
    22  C   12.236824   3.244949   3.066933   2.828186   2.444160
    23  C    6.417603   3.101416   4.540879   6.512720   7.378390
    24  C    7.269600   3.010725   4.536852   5.263355   6.250708
    25  C    3.094206   6.557256   7.749897  10.191412  11.124289
    26  C    4.409774   5.158706   6.359366   8.963473   9.831821
    27  C    5.016656   4.466579   5.852949   7.719079   8.672712
    28  H    7.154221   9.665204  10.083595  14.479675  15.028179
    29  H    7.691688  12.026825  12.529328  16.713555  17.342995
    30  H    6.460437  12.836980  13.590546  17.143370  17.941323
    31  H    4.066159  11.616907  12.588768  15.504719  16.426614
    32  H    2.146256  10.437804  11.579062  13.888458  14.901084
    33  H    2.145355  10.442693  11.578647  13.902502  14.914305
    34  H    1.095412  10.442797  11.766799  13.157656  14.306797
    35  H    1.092609   8.971719  10.287499  11.812401  12.921771
    36  H    1.092574   8.974183  10.296347  11.802274  12.913276
    37  H    8.882160   1.095622   2.141832   5.622408   6.036952
    38  H    8.906296   1.095738   2.143293   5.620490   6.028491
    39  H   10.538250   2.119661   1.095557   6.632847   6.583172
    40  H   11.374302   2.195233   1.092020   5.436239   5.230632
    41  H   11.361345   2.194971   1.092086   5.422538   5.223525
    42  H   12.596611   5.963445   6.571389   1.083601   2.163833
    43  H   14.484007   6.463278   6.488514   2.152665   1.083563
    44  H   14.356993   5.321409   4.810080   3.400742   2.155529
    45  H   12.401499   3.049075   2.382106   3.902219   3.401457
    46  H    6.960834   2.512932   3.781983   6.738292   7.426160
    47  H    6.899241   4.073035   5.593137   5.487666   6.633990
    48  H    2.357495   7.082610   8.382941  10.252814  11.284938
    49  H    5.240433   4.775346   5.789182   9.068123   9.804263
    50  H    4.603042   5.223280   6.683431   7.807402   8.885798
                   21         22         23         24         25
    21  C    0.000000
    22  C    1.397208   0.000000
    23  C    7.082919   5.846492   0.000000
    24  C    6.150922   5.054847   1.401223   0.000000
    25  C   10.831806   9.563800   3.758589   4.929102   0.000000
    26  C    9.479725   8.192588   2.457840   3.744834   1.399457
    27  C    8.450920   7.236921   1.400959   2.456250   2.472884
    28  H   14.277734  12.881187   8.266063   9.667190   5.793246
    29  H   16.656052  15.263376  10.330366  11.715079   7.295335
    30  H   17.428638  16.066549  10.631420  11.934814   7.093032
    31  H   16.070818  14.760011   9.048690  10.241630   5.313859
    32  H   14.680143  13.432805   7.622938   8.673005   3.948963
    33  H   14.691531  13.442799   7.632634   8.684052   3.956857
    34  H   14.296037  13.161534   7.385593   8.145120   4.182877
    35  H   12.862853  11.709931   5.947613   6.745943   2.894341
    36  H   12.857133  11.706018   5.943058   6.738920   2.891766
    37  H    5.339412   3.985504   2.728155   2.876248   5.993906
    38  H    5.325160   3.970234   2.746482   2.897859   6.010060
    39  H    5.473788   4.151963   4.683722   4.992648   7.478396
    40  H    4.079628   2.847641   5.167416   5.055612   8.412724
    41  H    4.081232   2.852249   5.160218   5.041151   8.408417
    42  H    3.409748   3.911713   7.045198   5.711270  10.609904
    43  H    2.161584   3.421761   8.438572   7.279553  12.175420
    44  H    1.084030   2.139681   7.981574   7.131625  11.703467
    45  H    2.130563   1.074922   5.987303   5.425384   9.588013
    46  H    6.928728   5.600753   1.083284   2.171969   4.044388
    47  H    6.745327   5.786845   2.094601   1.087556   4.963049
    48  H   11.123863   9.920364   4.080336   5.034550   1.077671
    49  H    9.301321   7.957227   2.659743   4.057607   2.147420
    50  H    8.831705   7.713077   2.144762   2.680808   2.714819
                   26         27         28         29         30
    26  C    0.000000
    27  C    1.396098   0.000000
    28  H    6.213977   7.590491   0.000000
    29  H    8.059184   9.453697   2.491521   0.000000
    30  H    8.192274   9.512494   4.310340   2.482384   0.000000
    31  H    6.602730   7.785659   4.999570   4.300929   2.459414
    32  H    5.316074   6.277771   5.996809   6.063506   4.625515
    33  H    5.324059   6.287781   5.990241   6.053271   4.613507
    34  H    5.475973   5.989052   7.970137   8.237729   6.716429
    35  H    4.086329   4.570293   7.379863   8.093280   7.008473
    36  H    4.084344   4.564435   7.390084   8.103479   7.016471
    37  H    4.615179   4.003308   9.110544  11.445101  12.224647
    38  H    4.629788   4.023424   9.106749  11.444369  12.230629
    39  H    6.128817   5.864112   9.229669  11.701059  12.899507
    40  H    7.028155   6.488226  10.694595  13.143417  14.232636
    41  H    7.025430   6.479609  10.712058  13.158029  14.239819
    42  H    9.455536   8.146798  15.176344  17.347640  17.645943
    43  H   10.894824   9.716025  16.108833  18.426369  19.017765
    44  H   10.331529   9.367850  14.853668  17.270812  18.157804
    45  H    8.193012   7.387173  12.436458  14.864777  15.821513
    46  H    2.646095   2.115368   7.769863   9.975363  10.526133
    47  H    3.997088   2.602824  10.148542  12.056128  12.055165
    48  H    2.118359   2.683635   6.675919   7.954782   7.438970
    49  H    1.090033   2.124781   5.616745   7.681550   8.143078
    50  H    2.141997   1.088523   8.295007   9.979966   9.779212
                   31         32         33         34         35
    31  H    0.000000
    32  H    2.296173   0.000000
    33  H    2.284298   1.766852   0.000000
    34  H    4.257823   2.419684   2.415249   0.000000
    35  H    4.686860   3.078546   2.513641   1.759779   0.000000
    36  H    4.691759   2.511638   3.077704   1.759590   1.789356
    37  H   11.003592   9.924105   9.770514   9.891942   8.336096
    38  H   11.015373   9.781732   9.945633   9.917919   8.549280
    39  H   12.059862  11.212092  11.207239  11.601685  10.134421
    40  H   13.245565  12.168079  12.296894  12.399302  10.993935
    41  H   13.246058  12.292215  12.162762  12.383973  10.832981
    42  H   15.900863  14.195026  14.210443  13.301672  12.014562
    43  H   17.483158  15.930209  15.944162  15.279644  13.910813
    44  H   16.891882  15.567484  15.578394  15.267100  13.818892
    45  H   14.662392  13.463955  13.472382  13.371616  11.899396
    46  H    9.160518   7.936598   7.944998   7.986537   6.534625
    47  H   10.195227   8.479332   8.491807   7.678797   6.354406
    48  H    5.398934   3.716927   3.727531   3.386850   2.086881
    49  H    6.844813   5.841439   5.847447   6.330220   4.967851
    50  H    7.849074   6.139131   6.150609   5.464346   4.111383
                   36         37         38         39         40
    36  H    0.000000
    37  H    8.526024   0.000000
    38  H    8.363932   1.771474   0.000000
    39  H   10.148358   2.409492   2.418023   0.000000
    40  H   10.856184   3.074456   2.505474   1.759639   0.000000
    41  H   10.988211   2.509915   3.075876   1.759991   1.788481
    42  H   12.002201   6.462803   6.464039   7.642601   6.478170
    43  H   13.901407   7.105688   7.096734   7.572620   6.174766
    44  H   13.814036   6.038603   6.020629   5.801371   4.375037
    45  H   11.897735   3.805346   3.783616   3.395558   2.072121
    46  H    6.532667   2.090506   2.097241   3.749870   4.463029
    47  H    6.344148   3.923439   3.947569   6.078657   6.073307
    48  H    2.075855   6.542989   6.563069   8.223183   9.027686
    49  H    4.969206   4.221278   4.228787   5.403129   6.473868
    50  H    4.101227   4.803332   4.827505   6.803949   7.282020
                   41         42         43         44         45
    41  H    0.000000
    42  H    6.461571   0.000000
    43  H    6.168060   2.495196   0.000000
    44  H    4.383392   4.306233   2.485962   0.000000
    45  H    2.095442   4.985820   4.285545   2.428765   0.000000
    46  H    4.465057   7.406554   8.506958   7.731388   5.549440
    47  H    6.054559   5.735806   7.601070   7.777322   6.286283
    48  H    9.018783  10.565666  12.307741  12.050019  10.053748
    49  H    6.477851   9.668805  10.883470  10.074996   7.818043
    50  H    7.268119   8.094952   9.888420   9.806980   7.994425
                   46         47         48         49         50
    46  H    0.000000
    47  H    3.078686   0.000000
    48  H    4.605684   4.831960   0.000000
    49  H    2.383074   4.558934   3.080373   0.000000
    50  H    3.077110   2.360059   2.472013   3.086388   0.000000
 Stoichiometry    C23H23N2S2(1+)
 Framework group  C1[X(C23H23N2S2)]
 Deg. of freedom   144
 Full point group                 C1      NOp   1
 Largest Abelian subgroup         C1      NOp   1
 Largest concise Abelian subgroup C1      NOp   1
                         Standard orientation:                         
 ---------------------------------------------------------------------
 Center     Atomic      Atomic             Coordinates (Angstroms)
 Number     Number       Type             X           Y           Z
 ---------------------------------------------------------------------
      1          6           0        5.598601   -1.341094   -0.007061
      2          6           0        6.472492   -2.422432   -0.011892
      3          6           0        7.847580   -2.159226   -0.013286
      4          6           0        8.315634   -0.837298   -0.010001
      5          6           0        7.430522    0.245543   -0.005081
      6          6           0        6.051786   -0.014271   -0.003370
      7          7           0        5.008669    0.953335    0.001698
      8          6           0        3.735978    0.440659    0.000627
      9         16           0        3.784358   -1.393975   -0.004841
     10          6           0       -3.757932    0.702261    0.001220
     11         16           0       -5.015177    2.011654   -0.006267
     12          6           0       -6.312514    0.749865   -0.007997
     13          6           0       -5.765462   -0.549197   -0.002665
     14          7           0       -4.336845   -0.545510    0.004333
     15          6           0        5.463856    2.384446    0.006824
     16          6           0        4.442730    3.518833    0.023090
     17          6           0       -3.409521   -1.720425    0.016855
     18          6           0       -3.977526   -3.137934    0.043250
     19          6           0       -7.682542    0.994144   -0.014610
     20          6           0       -8.550732   -0.099379   -0.016520
     21          6           0       -8.029944   -1.400820   -0.012208
     22          6           0       -6.653400   -1.640134   -0.005468
     23          6           0       -1.192737    0.448543    0.001786
     24          6           0       -2.420801    1.123289    0.003079
     25          6           0        2.508263    1.103976    0.002676
     26          6           0        1.265069    0.461367    0.001302
     27          6           0        0.035449    1.122518    0.003368
     28          1           0        6.101367   -3.440361   -0.014614
     29          1           0        8.550709   -2.983856   -0.017075
     30          1           0        9.382294   -0.644911   -0.011373
     31          1           0        7.819986    1.254521   -0.003004
     32          1           0        6.097547    2.493575   -0.880704
     33          1           0        6.110765    2.481774    0.886059
     34          1           0        5.011773    4.454819    0.030058
     35          1           0        3.819706    3.515333    0.920655
     36          1           0        3.811538    3.533932   -0.868586
     37          1           0       -2.771988   -1.587563    0.897926
     38          1           0       -2.779255   -1.615513   -0.873313
     39          1           0       -3.120195   -3.819797    0.060350
     40          1           0       -4.560476   -3.377342   -0.848580
     41          1           0       -4.567649   -3.340716    0.939512
     42          1           0       -8.062971    2.008762   -0.018462
     43          1           0       -9.622367    0.060872   -0.021732
     44          1           0       -8.704480   -2.249417   -0.014335
     45          1           0       -6.310509   -2.658897   -0.003059
     46          1           0       -1.143829   -0.633631   -0.001701
     47          1           0       -2.330639    2.207101    0.003995
     48          1           0        2.501254    2.181621    0.005248
     49          1           0        1.239239   -0.628356   -0.001612
     50          1           0        0.029416    2.211020    0.006356
 ---------------------------------------------------------------------
 Rotational constants (GHZ):      0.4895343      0.0443562      0.0407132
 Standard basis: 6-311G(2d,p) (5D, 7F)
 There are   829 symmetry adapted cartesian basis functions of A   symmetry.
 There are   775 symmetry adapted basis functions of A   symmetry.
   775 basis functions,  1238 primitive gaussians,   829 cartesian basis functions
   103 alpha electrons      103 beta electrons
       nuclear repulsion energy      2398.8112618704 Hartrees.
 NAtoms=   50 NActive=   50 NUniq=   50 SFac= 1.00D+00 NAtFMM=   60 NAOKFM=F Big=F
 Integral buffers will be    131072 words long.
 Regular integral format.
 Two-electron integral symmetry is turned on.
 One-electron integrals computed using PRISM.
 NBasis=   775 RedAO= T EigKep=  5.69D-05  NBF=   775
 NBsUse=   775 1.00D-06 EigRej= -1.00D+00 NBFU=   775
 ExpMin= 7.71D-02 ExpMax= 9.34D+04 ExpMxC= 3.17D+03 IAcc=2 IRadAn=         4 AccDes= 0.00D+00
 Harris functional with IExCor= 1009 and IRadAn=       4 diagonalized for initial guess.
 HarFok:  IExCor= 1009 AccDes= 0.00D+00 IRadAn=         4 IDoV= 1 UseB2=F ITyADJ=14
 ICtDFT=  3500011 ScaDFX=  1.000000  1.000000  1.000000  1.000000
 FoFCou: FMM=F IPFlag=           0 FMFlag=      100000 FMFlg1=           0
         NFxFlg=           0 DoJE=T BraDBF=F KetDBF=T FulRan=T
         wScrn=  0.000000 ICntrl=     500 IOpCl=  0 I1Cent=   200000004 NGrid=           0
         NMat0=    1 NMatS0=      1 NMatT0=    0 NMatD0=    1 NMtDS0=    0 NMtDT0=    0
 Petite list used in FoFCou.
 Requested convergence on RMS density matrix=1.00D-08 within 128 cycles.
 Requested convergence on MAX density matrix=1.00D-06.
 Requested convergence on             energy=1.00D-06.
 No special actions if energy rises.
 Integral accuracy reduced to 1.0D-05 until final iterations.
 Initial convergence to 1.0D-05 achieved.  Increase integral accuracy.
 SCF Done:  E(RPBE1PBE) =  -1794.76811506     A.U. after   15 cycles
            NFock= 15  Conv=0.67D-08     -V/T= 2.0035
 DoSCS=F DFT=T ScalE2(SS,OS)=  1.000000  1.000000
 ExpMin= 7.71D-02 ExpMax= 9.34D+04 ExpMxC= 3.17D+03 IAcc=3 IRadAn=         5 AccDes= 0.00D+00
 HarFok:  IExCor=  205 AccDes= 0.00D+00 IRadAn=         5 IDoV=-2 UseB2=F ITyADJ=14
 ICtDFT= 12500011 ScaDFX=  1.000000  1.000000  1.000000  1.000000
 Range of M.O.s used for correlation:    36   775
 NBasis=   775 NAE=   103 NBE=   103 NFC=    35 NFV=     0
 NROrb=    740 NOA=    68 NOB=    68 NVA=   672 NVB=   672

 **** Warning!!: The largest alpha MO coefficient is  0.23392829D+02


 **** Warning!!: The smallest alpha delta epsilon is  0.95362823D-01

 Would need an additional        133664900000 words for in-memory AO integral storage.
 Orbital symmetries:
       Occupied  (A) (A) (A) (A) (A) (A) (A) (A) (A) (A) (A) (A)
                 (A) (A) (A) (A) (A) (A) (A) (A) (A) (A) (A) (A)
                 (A) (A) (A) (A) (A) (A) (A) (A) (A) (A) (A) (A)
                 (A) (A) (A) (A) (A) (A) (A) (A) (A) (A) (A) (A)
                 (A) (A) (A) (A) (A) (A) (A) (A) (A) (A) (A) (A)
                 (A) (A) (A) (A) (A) (A) (A) (A) (A) (A) (A) (A)
                 (A) (A) (A) (A) (A) (A) (A) (A) (A) (A) (A) (A)
                 (A) (A) (A) (A) (A) (A) (A) (A) (A) (A) (A) (A)
                 (A) (A) (A) (A) (A) (A) (A)
       Virtual   (A) (A) (A) (A) (A) (A) (A) (A) (A) (A) (A) (A)
                 (A) (A) (A) (A) (A) (A) (A) (A) (A) (A) (A) (A)
                 (A) (A) (A) (A) (A) (A) (A) (A) (A) (A) (A) (A)
                 (A) (A) (A) (A) (A) (A) (A) (A) (A) (A) (A) (A)
                 (A) (A) (A) (A) (A) (A) (A) (A) (A) (A) (A) (A)
                 (A) (A) (A) (A) (A) (A) (A) (A) (A) (A) (A) (A)
                 (A) (A) (A) (A) (A) (A) (A) (A) (A) (A) (A) (A)
                 (A) (A) (A) (A) (A) (A) (A) (A) (A) (A) (A) (A)
                 (A) (A) (A) (A) (A) (A) (A) (A) (A) (A) (A) (A)
                 (A) (A) (A) (A) (A) (A) (A) (A) (A) (A) (A) (A)
                 (A) (A) (A) (A) (A) (A) (A) (A) (A) (A) (A) (A)
                 (A) (A) (A) (A) (A) (A) (A) (A) (A) (A) (A) (A)
                 (A) (A) (A) (A) (A) (A) (A) (A) (A) (A) (A) (A)
                 (A) (A) (A) (A) (A) (A) (A) (A) (A) (A) (A) (A)
                 (A) (A) (A) (A) (A) (A) (A) (A) (A) (A) (A) (A)
                 (A) (A) (A) (A) (A) (A) (A) (A) (A) (A) (A) (A)
                 (A) (A) (A) (A) (A) (A) (A) (A) (A) (A) (A) (A)
                 (A) (A) (A) (A) (A) (A) (A) (A) (A) (A) (A) (A)
                 (A) (A) (A) (A) (A) (A) (A) (A) (A) (A) (A) (A)
                 (A) (A) (A) (A) (A) (A) (A) (A) (A) (A) (A) (A)
                 (A) (A) (A) (A) (A) (A) (A) (A) (A) (A) (A) (A)
                 (A) (A) (A) (A) (A) (A) (A) (A) (A) (A) (A) (A)
                 (A) (A) (A) (A) (A) (A) (A) (A) (A) (A) (A) (A)
                 (A) (A) (A) (A) (A) (A) (A) (A) (A) (A) (A) (A)
                 (A) (A) (A) (A) (A) (A) (A) (A) (A) (A) (A) (A)
                 (A) (A) (A) (A) (A) (A) (A) (A) (A) (A) (A) (A)
                 (A) (A) (A) (A) (A) (A) (A) (A) (A) (A) (A) (A)
                 (A) (A) (A) (A) (A) (A) (A) (A) (A) (A) (A) (A)
                 (A) (A) (A) (A) (A) (A) (A) (A) (A) (A) (A) (A)
                 (A) (A) (A) (A) (A) (A) (A) (A) (A) (A) (A) (A)
                 (A) (A) (A) (A) (A) (A) (A) (A) (A) (A) (A) (A)
                 (A) (A) (A) (A) (A) (A) (A) (A) (A) (A) (A) (A)
                 (A) (A) (A) (A) (A) (A) (A) (A) (A) (A) (A) (A)
                 (A) (A) (A) (A) (A) (A) (A) (A) (A) (A) (A) (A)
                 (A) (A) (A) (A) (A) (A) (A) (A) (A) (A) (A) (A)
                 (A) (A) (A) (A) (A) (A) (A) (A) (A) (A) (A) (A)
                 (A) (A) (A) (A) (A) (A) (A) (A) (A) (A) (A) (A)
                 (A) (A) (A) (A) (A) (A) (A) (A) (A) (A) (A) (A)
                 (A) (A) (A) (A) (A) (A) (A) (A) (A) (A) (A) (A)
                 (A) (A) (A) (A) (A) (A) (A) (A) (A) (A) (A) (A)
                 (A) (A) (A) (A) (A) (A) (A) (A) (A) (A) (A) (A)
                 (A) (A) (A) (A) (A) (A) (A) (A) (A) (A) (A) (A)
                 (A) (A) (A) (A) (A) (A) (A) (A) (A) (A) (A) (A)
                 (A) (A) (A) (A) (A) (A) (A) (A) (A) (A) (A) (A)
                 (A) (A) (A) (A) (A) (A) (A) (A) (A) (A) (A) (A)
                 (A) (A) (A) (A) (A) (A) (A) (A) (A) (A) (A) (A)
                 (A) (A) (A) (A) (A) (A) (A) (A) (A) (A) (A) (A)
                 (A) (A) (A) (A) (A) (A) (A) (A) (A) (A) (A) (A)
                 (A) (A) (A) (A) (A) (A) (A) (A) (A) (A) (A) (A)
                 (A) (A) (A) (A) (A) (A) (A) (A) (A) (A) (A) (A)
                 (A) (A) (A) (A) (A) (A) (A) (A) (A) (A) (A) (A)
                 (A) (A) (A) (A) (A) (A) (A) (A) (A) (A) (A) (A)
                 (A) (A) (A) (A) (A) (A) (A) (A) (A) (A) (A) (A)
                 (A) (A) (A) (A) (A) (A) (A) (A) (A) (A) (A) (A)
                 (A) (A) (A) (A) (A) (A) (A) (A) (A) (A) (A) (A)
                 (A) (A) (A) (A) (A) (A) (A) (A) (A) (A) (A) (A)
    12 initial guesses have been made.
 Convergence on wavefunction:    0.001000000000000
 Iteration     1 Dimension    12 NMult     0 NNew     12
 CISAX will form    12 AO SS matrices at one time.
 Iteration     2 Dimension    18 NMult    12 NNew      6
 Iteration     3 Dimension    24 NMult    18 NNew      6
 Iteration     4 Dimension    30 NMult    24 NNew      6
 Iteration     5 Dimension    36 NMult    30 NNew      6
 Iteration     6 Dimension    40 NMult    36 NNew      4
 Iteration     7 Dimension    44 NMult    40 NNew      4
 Iteration     8 Dimension    46 NMult    44 NNew      2
 ***********************************************************************
 Excited states from <AA,BB:AA,BB> singles matrix:
 ***********************************************************************
 
 Ground to excited state transition densities written to RWF  633
 Ground to excited state transition electric dipole moments (Au):
       state          X           Y           Z        Dip. S.      Osc.
         1        -5.9271      0.2046      0.0005     35.1719      2.1204
         2        -0.6739     -0.2158     -0.0025      0.5008      0.0432
         3        -0.2554     -0.5042      0.0010      0.3195      0.0284
 Ground to excited state transition velocity dipole moments (Au):
       state          X           Y           Z        Dip. S.      Osc.
         1         0.5367     -0.0199      0.0000      0.2885      2.1265
         2         0.0855      0.0273      0.0003      0.0081      0.0415
         3         0.0346      0.0681     -0.0001      0.0058      0.0292
 Ground to excited state transition magnetic dipole moments (Au):
       state          X           Y           Z
         1        -0.0011      0.0058     -1.4209
         2        -0.0001      0.0002      0.3433
         3        -0.0012     -0.0017     -0.2814
 Ground to excited state transition velocity quadrupole moments (Au):
       state          XX          YY          ZZ          XY          XZ          YZ
         1        -0.1272      0.0756      0.0036     -0.1834     -0.0056      0.0027
         2        -1.8203     -0.1536     -0.0179      0.4446     -0.0013     -0.0001
         3        -0.2257      0.0561      0.0101     -0.4421      0.0011      0.0001
 <0|del|b> * <b|rxdel|0> + <0|del|b> * <b|delr+rdel|0>
 Rotatory Strengths (R) in cgs (10**-40 erg-esu-cm/Gauss)
       state          XX          YY          ZZ    R(velocity)    E-M Angle
         1        -0.6405      3.6466     -8.0209     -1.6716       90.05
         2         0.8208     -0.1339     -0.0631      0.2080       89.79
         3        -0.2589     -0.1560     -0.2276     -0.2142       90.32
 1/2[<0|r|b>*<b|rxdel|0> + (<0|rxdel|b>*<b|r|0>)*]
 Rotatory Strengths (R) in cgs (10**-40 erg-esu-cm/Gauss)
       state          XX          YY          ZZ     R(length)
         1        -4.5384     -0.8460      0.5486     -1.6120
         2        -0.0248      0.0372      0.6009      0.2044
         3        -0.2232     -0.5969      0.1913     -0.2096
  1/2[<0|del|b>*<b|r|0> + (<0|r|b>*<b|del|0>)*] (Au)
       state          X           Y           Z        Dip. S.   Osc.(frdel)
         1        -3.1811     -0.0041      0.0000      3.1852      2.1235
         2        -0.0576     -0.0059      0.0000      0.0635      0.0423
         3        -0.0088     -0.0343      0.0000      0.0432      0.0288

 Excitation energies and oscillator strengths:
 
 Excited State   1:      Singlet-A      2.4608 eV  503.84 nm  f=2.1204  <S**2>=0.000
     103 ->104         0.70965
     103 <-104        -0.12275
 This state for optimization and/or second-order correction.
 Total Energy, E(TD-HF/TD-KS) =  -1794.67768351    
 Copying the excited state density for this state as the 1-particle RhoCI density.
 
 Excited State   2:      Singlet-A      3.5212 eV  352.10 nm  f=0.0432  <S**2>=0.000
     100 ->104         0.22058
     102 ->104         0.64700
     103 ->105         0.14880
 
 Excited State   3:      Singlet-A      3.6269 eV  341.84 nm  f=0.0284  <S**2>=0.000
     101 ->104         0.69055
 SavETr:  write IOETrn=   770 NScale= 10 NData=  16 NLR=1 NState=    3 LETran=      64.

 **********************************************************************

            Population analysis using the SCF density.

 **********************************************************************

 Orbital symmetries:
       Occupied  (A) (A) (A) (A) (A) (A) (A) (A) (A) (A) (A) (A)
                 (A) (A) (A) (A) (A) (A) (A) (A) (A) (A) (A) (A)
                 (A) (A) (A) (A) (A) (A) (A) (A) (A) (A) (A) (A)
                 (A) (A) (A) (A) (A) (A) (A) (A) (A) (A) (A) (A)
                 (A) (A) (A) (A) (A) (A) (A) (A) (A) (A) (A) (A)
                 (A) (A) (A) (A) (A) (A) (A) (A) (A) (A) (A) (A)
                 (A) (A) (A) (A) (A) (A) (A) (A) (A) (A) (A) (A)
                 (A) (A) (A) (A) (A) (A) (A) (A) (A) (A) (A) (A)
                 (A) (A) (A) (A) (A) (A) (A)
       Virtual   (A) (A) (A) (A) (A) (A) (A) (A) (A) (A) (A) (A)
                 (A) (A) (A) (A) (A) (A) (A) (A) (A) (A) (A) (A)
                 (A) (A) (A) (A) (A) (A) (A) (A) (A) (A) (A) (A)
                 (A) (A) (A) (A) (A) (A) (A) (A) (A) (A) (A) (A)
                 (A) (A) (A) (A) (A) (A) (A) (A) (A) (A) (A) (A)
                 (A) (A) (A) (A) (A) (A) (A) (A) (A) (A) (A) (A)
                 (A) (A) (A) (A) (A) (A) (A) (A) (A) (A) (A) (A)
                 (A) (A) (A) (A) (A) (A) (A) (A) (A) (A) (A) (A)
                 (A) (A) (A) (A) (A) (A) (A) (A) (A) (A) (A) (A)
                 (A) (A) (A) (A) (A) (A) (A) (A) (A) (A) (A) (A)
                 (A) (A) (A) (A) (A) (A) (A) (A) (A) (A) (A) (A)
                 (A) (A) (A) (A) (A) (A) (A) (A) (A) (A) (A) (A)
                 (A) (A) (A) (A) (A) (A) (A) (A) (A) (A) (A) (A)
                 (A) (A) (A) (A) (A) (A) (A) (A) (A) (A) (A) (A)
                 (A) (A) (A) (A) (A) (A) (A) (A) (A) (A) (A) (A)
                 (A) (A) (A) (A) (A) (A) (A) (A) (A) (A) (A) (A)
                 (A) (A) (A) (A) (A) (A) (A) (A) (A) (A) (A) (A)
                 (A) (A) (A) (A) (A) (A) (A) (A) (A) (A) (A) (A)
                 (A) (A) (A) (A) (A) (A) (A) (A) (A) (A) (A) (A)
                 (A) (A) (A) (A) (A) (A) (A) (A) (A) (A) (A) (A)
                 (A) (A) (A) (A) (A) (A) (A) (A) (A) (A) (A) (A)
                 (A) (A) (A) (A) (A) (A) (A) (A) (A) (A) (A) (A)
                 (A) (A) (A) (A) (A) (A) (A) (A) (A) (A) (A) (A)
                 (A) (A) (A) (A) (A) (A) (A) (A) (A) (A) (A) (A)
                 (A) (A) (A) (A) (A) (A) (A) (A) (A) (A) (A) (A)
                 (A) (A) (A) (A) (A) (A) (A) (A) (A) (A) (A) (A)
                 (A) (A) (A) (A) (A) (A) (A) (A) (A) (A) (A) (A)
                 (A) (A) (A) (A) (A) (A) (A) (A) (A) (A) (A) (A)
                 (A) (A) (A) (A) (A) (A) (A) (A) (A) (A) (A) (A)
                 (A) (A) (A) (A) (A) (A) (A) (A) (A) (A) (A) (A)
                 (A) (A) (A) (A) (A) (A) (A) (A) (A) (A) (A) (A)
                 (A) (A) (A) (A) (A) (A) (A) (A) (A) (A) (A) (A)
                 (A) (A) (A) (A) (A) (A) (A) (A) (A) (A) (A) (A)
                 (A) (A) (A) (A) (A) (A) (A) (A) (A) (A) (A) (A)
                 (A) (A) (A) (A) (A) (A) (A) (A) (A) (A) (A) (A)
                 (A) (A) (A) (A) (A) (A) (A) (A) (A) (A) (A) (A)
                 (A) (A) (A) (A) (A) (A) (A) (A) (A) (A) (A) (A)
                 (A) (A) (A) (A) (A) (A) (A) (A) (A) (A) (A) (A)
                 (A) (A) (A) (A) (A) (A) (A) (A) (A) (A) (A) (A)
                 (A) (A) (A) (A) (A) (A) (A) (A) (A) (A) (A) (A)
                 (A) (A) (A) (A) (A) (A) (A) (A) (A) (A) (A) (A)
                 (A) (A) (A) (A) (A) (A) (A) (A) (A) (A) (A) (A)
                 (A) (A) (A) (A) (A) (A) (A) (A) (A) (A) (A) (A)
                 (A) (A) (A) (A) (A) (A) (A) (A) (A) (A) (A) (A)
                 (A) (A) (A) (A) (A) (A) (A) (A) (A) (A) (A) (A)
                 (A) (A) (A) (A) (A) (A) (A) (A) (A) (A) (A) (A)
                 (A) (A) (A) (A) (A) (A) (A) (A) (A) (A) (A) (A)
                 (A) (A) (A) (A) (A) (A) (A) (A) (A) (A) (A) (A)
                 (A) (A) (A) (A) (A) (A) (A) (A) (A) (A) (A) (A)
                 (A) (A) (A) (A) (A) (A) (A) (A) (A) (A) (A) (A)
                 (A) (A) (A) (A) (A) (A) (A) (A) (A) (A) (A) (A)
                 (A) (A) (A) (A) (A) (A) (A) (A) (A) (A) (A) (A)
                 (A) (A) (A) (A) (A) (A) (A) (A) (A) (A) (A) (A)
                 (A) (A) (A) (A) (A) (A) (A) (A) (A) (A) (A) (A)
                 (A) (A) (A) (A) (A) (A) (A) (A) (A) (A) (A) (A)
                 (A) (A) (A) (A) (A) (A) (A) (A) (A) (A) (A) (A)
 The electronic state is 1-A.
 Alpha  occ. eigenvalues --  -89.16342 -89.16228 -14.57155 -14.56948 -10.43822
 Alpha  occ. eigenvalues --  -10.43582 -10.39190 -10.38650 -10.38532 -10.38402
 Alpha  occ. eigenvalues --  -10.37516 -10.37513 -10.35730 -10.35541 -10.34124
 Alpha  occ. eigenvalues --  -10.33617 -10.33574 -10.33449 -10.33442 -10.33436
 Alpha  occ. eigenvalues --  -10.32947 -10.32845 -10.32781 -10.32736 -10.32689
 Alpha  occ. eigenvalues --  -10.32607 -10.32502  -8.14447  -8.14328  -6.08170
 Alpha  occ. eigenvalues --   -6.08066  -6.07834  -6.07727  -6.07334  -6.07192
 Alpha  occ. eigenvalues --   -1.13182  -1.13137  -0.99254  -0.99063  -0.96938
 Alpha  occ. eigenvalues --   -0.95639  -0.94208  -0.92155  -0.90045  -0.89499
 Alpha  occ. eigenvalues --   -0.88830  -0.87345  -0.86635  -0.85128  -0.82056
 Alpha  occ. eigenvalues --   -0.79185  -0.77990  -0.77348  -0.74380  -0.73378
 Alpha  occ. eigenvalues --   -0.72389  -0.71650  -0.69276  -0.68986  -0.67909
 Alpha  occ. eigenvalues --   -0.64317  -0.63358  -0.63080  -0.62521  -0.61330
 Alpha  occ. eigenvalues --   -0.61021  -0.60508  -0.59735  -0.57499  -0.57207
 Alpha  occ. eigenvalues --   -0.56284  -0.55937  -0.55658  -0.54951  -0.54389
 Alpha  occ. eigenvalues --   -0.54345  -0.53025  -0.52690  -0.51933  -0.51471
 Alpha  occ. eigenvalues --   -0.51001  -0.50653  -0.50242  -0.49623  -0.48873
 Alpha  occ. eigenvalues --   -0.48732  -0.48250  -0.47954  -0.47750  -0.46891
 Alpha  occ. eigenvalues --   -0.46684  -0.46339  -0.45408  -0.45324  -0.44872
 Alpha  occ. eigenvalues --   -0.42155  -0.41540  -0.40635  -0.37481  -0.35447
 Alpha  occ. eigenvalues --   -0.35155  -0.34413  -0.29222
 Alpha virt. eigenvalues --   -0.19686  -0.12169  -0.11219  -0.11010  -0.10944
 Alpha virt. eigenvalues --   -0.10934  -0.09764  -0.08834  -0.05722  -0.04879
 Alpha virt. eigenvalues --   -0.04760  -0.04464  -0.03293  -0.03073  -0.02848
 Alpha virt. eigenvalues --   -0.01882  -0.01285  -0.00756  -0.00353   0.00668
 Alpha virt. eigenvalues --    0.00928   0.01117   0.01668   0.02155   0.02223
 Alpha virt. eigenvalues --    0.02414   0.02940   0.03512   0.03866   0.04155
 Alpha virt. eigenvalues --    0.05079   0.05213   0.05676   0.05754   0.06591
 Alpha virt. eigenvalues --    0.06876   0.07343   0.07466   0.07808   0.08315
 Alpha virt. eigenvalues --    0.08860   0.09490   0.09835   0.10304   0.10892
 Alpha virt. eigenvalues --    0.11071   0.11455   0.13599   0.14183   0.14836
 Alpha virt. eigenvalues --    0.15264   0.15440   0.16881   0.17515   0.18786
 Alpha virt. eigenvalues --    0.18799   0.19079   0.19106   0.19361   0.19742
 Alpha virt. eigenvalues --    0.20169   0.20885   0.21132   0.21515   0.22082
 Alpha virt. eigenvalues --    0.23058   0.23224   0.23619   0.24773   0.24903
 Alpha virt. eigenvalues --    0.24963   0.25112   0.26043   0.26198   0.26455
 Alpha virt. eigenvalues --    0.26600   0.26962   0.27443   0.27664   0.27782
 Alpha virt. eigenvalues --    0.28481   0.29415   0.29971   0.30204   0.30721
 Alpha virt. eigenvalues --    0.30876   0.31061   0.31333   0.31352   0.31743
 Alpha virt. eigenvalues --    0.32341   0.32567   0.33508   0.34057   0.34495
 Alpha virt. eigenvalues --    0.34633   0.35154   0.35235   0.35738   0.35988
 Alpha virt. eigenvalues --    0.36254   0.36598   0.37131   0.37524   0.38784
 Alpha virt. eigenvalues --    0.38986   0.39494   0.39894   0.40286   0.41568
 Alpha virt. eigenvalues --    0.42308   0.42346   0.42770   0.42973   0.43580
 Alpha virt. eigenvalues --    0.43642   0.44254   0.44598   0.45621   0.45818
 Alpha virt. eigenvalues --    0.46279   0.46394   0.46873   0.47033   0.47052
 Alpha virt. eigenvalues --    0.47645   0.47801   0.48374   0.48488   0.48635
 Alpha virt. eigenvalues --    0.49002   0.49117   0.49901   0.50150   0.50403
 Alpha virt. eigenvalues --    0.50464   0.51562   0.51779   0.51980   0.52063
 Alpha virt. eigenvalues --    0.52373   0.52527   0.52806   0.53695   0.54760
 Alpha virt. eigenvalues --    0.55173   0.55268   0.55349   0.55907   0.56191
 Alpha virt. eigenvalues --    0.56260   0.56655   0.57362   0.57523   0.58519
 Alpha virt. eigenvalues --    0.58907   0.59164   0.59736   0.59772   0.59925
 Alpha virt. eigenvalues --    0.60627   0.60781   0.60902   0.61486   0.61501
 Alpha virt. eigenvalues --    0.62316   0.62877   0.62935   0.63984   0.64300
 Alpha virt. eigenvalues --    0.64903   0.65088   0.65328   0.65623   0.66116
 Alpha virt. eigenvalues --    0.67018   0.67169   0.68061   0.68203   0.68976
 Alpha virt. eigenvalues --    0.69563   0.69615   0.69822   0.70476   0.70963
 Alpha virt. eigenvalues --    0.71111   0.71305   0.72077   0.72991   0.73361
 Alpha virt. eigenvalues --    0.73429   0.74168   0.74480   0.75107   0.75252
 Alpha virt. eigenvalues --    0.75690   0.76487   0.78327   0.78547   0.78713
 Alpha virt. eigenvalues --    0.79608   0.80117   0.81185   0.81947   0.82319
 Alpha virt. eigenvalues --    0.82680   0.82900   0.83273   0.83930   0.84717
 Alpha virt. eigenvalues --    0.84799   0.85705   0.86942   0.88178   0.88440
 Alpha virt. eigenvalues --    0.89445   0.90072   0.90806   0.91871   0.92616
 Alpha virt. eigenvalues --    0.93001   0.94153   0.94882   0.95104   0.95460
 Alpha virt. eigenvalues --    0.96254   0.96658   0.96668   0.97866   0.98909
 Alpha virt. eigenvalues --    0.99170   0.99817   1.00557   1.00951   1.01935
 Alpha virt. eigenvalues --    1.02343   1.02375   1.02892   1.02900   1.03291
 Alpha virt. eigenvalues --    1.03865   1.04007   1.06345   1.06389   1.06655
 Alpha virt. eigenvalues --    1.06990   1.07294   1.08351   1.08787   1.09542
 Alpha virt. eigenvalues --    1.10043   1.10739   1.11967   1.12093   1.12499
 Alpha virt. eigenvalues --    1.12843   1.13164   1.14364   1.14531   1.14810
 Alpha virt. eigenvalues --    1.15012   1.16641   1.16729   1.16863   1.17658
 Alpha virt. eigenvalues --    1.18098   1.18580   1.18643   1.19272   1.19377
 Alpha virt. eigenvalues --    1.20426   1.21804   1.22137   1.22322   1.24330
 Alpha virt. eigenvalues --    1.24555   1.24812   1.25457   1.25598   1.27499
 Alpha virt. eigenvalues --    1.27937   1.30827   1.31496   1.33211   1.34357
 Alpha virt. eigenvalues --    1.35253   1.36374   1.36433   1.36640   1.37169
 Alpha virt. eigenvalues --    1.38695   1.39364   1.40448   1.40667   1.42042
 Alpha virt. eigenvalues --    1.43079   1.44258   1.45306   1.45665   1.46052
 Alpha virt. eigenvalues --    1.46177   1.46481   1.46889   1.48351   1.48799
 Alpha virt. eigenvalues --    1.49728   1.50772   1.51939   1.52451   1.52671
 Alpha virt. eigenvalues --    1.52873   1.53561   1.54076   1.54146   1.54773
 Alpha virt. eigenvalues --    1.56278   1.57522   1.58803   1.59613   1.60447
 Alpha virt. eigenvalues --    1.60536   1.61595   1.62269   1.62974   1.63657
 Alpha virt. eigenvalues --    1.63713   1.64518   1.66526   1.66979   1.68614
 Alpha virt. eigenvalues --    1.69008   1.70501   1.72417   1.73490   1.73703
 Alpha virt. eigenvalues --    1.75320   1.75577   1.77277   1.77675   1.80836
 Alpha virt. eigenvalues --    1.82382   1.83109   1.83575   1.86014   1.87496
 Alpha virt. eigenvalues --    1.88183   1.90134   1.92636   1.94485   1.94989
 Alpha virt. eigenvalues --    1.95530   1.96085   1.98772   1.99243   1.99418
 Alpha virt. eigenvalues --    2.00146   2.00336   2.00983   2.01741   2.03892
 Alpha virt. eigenvalues --    2.04304   2.05175   2.05498   2.06515   2.06890
 Alpha virt. eigenvalues --    2.09252   2.11076   2.11419   2.12004   2.12327
 Alpha virt. eigenvalues --    2.14929   2.15399   2.16315   2.16392   2.16955
 Alpha virt. eigenvalues --    2.17845   2.18911   2.19325   2.19477   2.20685
 Alpha virt. eigenvalues --    2.21887   2.23567   2.24388   2.25095   2.25359
 Alpha virt. eigenvalues --    2.27084   2.28150   2.28624   2.32138   2.33714
 Alpha virt. eigenvalues --    2.35382   2.35477   2.35548   2.36104   2.36953
 Alpha virt. eigenvalues --    2.39638   2.40618   2.41470   2.44581   2.44990
 Alpha virt. eigenvalues --    2.45024   2.45478   2.47122   2.48089   2.48234
 Alpha virt. eigenvalues --    2.48635   2.49789   2.51391   2.51419   2.52201
 Alpha virt. eigenvalues --    2.52522   2.53573   2.54269   2.55102   2.55653
 Alpha virt. eigenvalues --    2.56179   2.57872   2.58182   2.58330   2.58956
 Alpha virt. eigenvalues --    2.60059   2.60806   2.61128   2.61575   2.61757
 Alpha virt. eigenvalues --    2.62750   2.63113   2.63573   2.63859   2.67173
 Alpha virt. eigenvalues --    2.67586   2.68791   2.69101   2.71264   2.72355
 Alpha virt. eigenvalues --    2.72912   2.73240   2.73308   2.73718   2.74865
 Alpha virt. eigenvalues --    2.76854   2.77086   2.78648   2.80501   2.80718
 Alpha virt. eigenvalues --    2.82004   2.85420   2.86386   2.88158   2.88424
 Alpha virt. eigenvalues --    2.89849   2.92264   2.93418   2.97176   2.97953
 Alpha virt. eigenvalues --    2.98204   2.98894   2.99248   3.01015   3.01220
 Alpha virt. eigenvalues --    3.02050   3.02276   3.02501   3.02685   3.03847
 Alpha virt. eigenvalues --    3.04379   3.05428   3.06729   3.08832   3.09292
 Alpha virt. eigenvalues --    3.10101   3.10907   3.11426   3.11630   3.12176
 Alpha virt. eigenvalues --    3.12969   3.13530   3.14480   3.14730   3.15302
 Alpha virt. eigenvalues --    3.15841   3.16258   3.17639   3.18166   3.19016
 Alpha virt. eigenvalues --    3.19390   3.19644   3.20169   3.20682   3.21169
 Alpha virt. eigenvalues --    3.21682   3.22318   3.22834   3.24048   3.24504
 Alpha virt. eigenvalues --    3.24900   3.25272   3.26530   3.27706   3.28936
 Alpha virt. eigenvalues --    3.29437   3.29531   3.29795   3.30598   3.30928
 Alpha virt. eigenvalues --    3.31731   3.31959   3.32720   3.33771   3.34671
 Alpha virt. eigenvalues --    3.34748   3.34815   3.36393   3.36476   3.36799
 Alpha virt. eigenvalues --    3.37582   3.38307   3.38856   3.38948   3.40214
 Alpha virt. eigenvalues --    3.41058   3.41299   3.42278   3.42402   3.42870
 Alpha virt. eigenvalues --    3.43225   3.43825   3.44241   3.44316   3.45424
 Alpha virt. eigenvalues --    3.46168   3.47282   3.47755   3.48658   3.48894
 Alpha virt. eigenvalues --    3.49337   3.49623   3.49743   3.49974   3.50396
 Alpha virt. eigenvalues --    3.50709   3.51892   3.52194   3.53293   3.53934
 Alpha virt. eigenvalues --    3.54045   3.55483   3.56240   3.57028   3.57682
 Alpha virt. eigenvalues --    3.58397   3.58623   3.58856   3.59728   3.60206
 Alpha virt. eigenvalues --    3.61935   3.62465   3.62955   3.64794   3.65586
 Alpha virt. eigenvalues --    3.65824   3.66312   3.66887   3.67554   3.67820
 Alpha virt. eigenvalues --    3.68002   3.69645   3.71752   3.72558   3.74620
 Alpha virt. eigenvalues --    3.76165   3.76433   3.78783   3.80834   3.80900
 Alpha virt. eigenvalues --    3.81340   3.82028   3.83287   3.84020   3.85055
 Alpha virt. eigenvalues --    3.87470   3.88121   3.88210   3.89320   3.89905
 Alpha virt. eigenvalues --    3.91455   3.92216   3.94592   3.95183   3.97125
 Alpha virt. eigenvalues --    3.98050   3.98434   4.01385   4.04003   4.05675
 Alpha virt. eigenvalues --    4.10065   4.12038   4.12235   4.12600   4.13983
 Alpha virt. eigenvalues --    4.14327   4.15285   4.15442   4.28211   4.29071
 Alpha virt. eigenvalues --    4.32795   4.33139   4.35958   4.38495   4.39543
 Alpha virt. eigenvalues --    4.42607   4.46578   4.51693   4.52184   4.54428
 Alpha virt. eigenvalues --    4.63657   4.64218   4.68891   4.69683   4.71839
 Alpha virt. eigenvalues --    4.91247   4.94029   4.98314   5.01093   5.03975
 Alpha virt. eigenvalues --    5.10275   5.12356   5.13876   5.14941   5.20664
 Alpha virt. eigenvalues --    5.21038   5.32524   5.38140   5.51088   5.52676
 Alpha virt. eigenvalues --    5.74919   5.76775   8.03943   8.04968  17.21477
 Alpha virt. eigenvalues --   17.21601  17.65386  17.67666  17.72052  17.72872
 Alpha virt. eigenvalues --   23.56151  23.57162  23.81856  23.84646  23.90254
 Alpha virt. eigenvalues --   23.91453  23.92340  23.97435  23.97753  23.98468
 Alpha virt. eigenvalues --   23.98682  23.99616  24.00308  24.03447  24.05014
 Alpha virt. eigenvalues --   24.06279  24.08367  24.08582  24.08636  24.11245
 Alpha virt. eigenvalues --   24.12148  24.15028  24.15254  35.63414  35.63687
 Alpha virt. eigenvalues --  189.35891 189.36684
          Condensed to atoms (all electrons):
               1          2          3          4          5          6
     1  C    4.762743   0.516498  -0.027851  -0.020802  -0.026961   0.517746
     2  C    0.516498   4.904009   0.501353  -0.021256  -0.027708  -0.018759
     3  C   -0.027851   0.501353   4.766999   0.501703  -0.016130  -0.029739
     4  C   -0.020802  -0.021256   0.501703   4.760371   0.518482  -0.017050
     5  C   -0.026961  -0.027708  -0.016130   0.518482   4.877017   0.457639
     6  C    0.517746  -0.018759  -0.029739  -0.017050   0.457639   4.699779
     7  N    0.002526   0.001770  -0.000279   0.002114  -0.032840   0.351074
     8  C   -0.020877   0.002616  -0.000197  -0.000280   0.000823  -0.064212
     9  S    0.328464  -0.040631   0.001240   0.002358   0.000245  -0.100798
    10  C    0.000000   0.000000   0.000000   0.000000   0.000000   0.000000
    11  S    0.000000   0.000000   0.000000   0.000000   0.000000   0.000000
    12  C    0.000000   0.000000   0.000000   0.000000   0.000000   0.000000
    13  C    0.000000   0.000000   0.000000   0.000000   0.000000   0.000000
    14  N    0.000000   0.000000   0.000000   0.000000   0.000000   0.000000
    15  C    0.001748   0.000097  -0.000092  -0.000268   0.000866  -0.077845
    16  C   -0.000013  -0.000002   0.000001   0.000000   0.000076   0.003157
    17  C    0.000000   0.000000   0.000000   0.000000   0.000000   0.000000
    18  C    0.000000   0.000000   0.000000   0.000000   0.000000   0.000000
    19  C    0.000000   0.000000   0.000000   0.000000   0.000000   0.000000
    20  C    0.000000   0.000000   0.000000   0.000000   0.000000   0.000000
    21  C    0.000000   0.000000   0.000000   0.000000   0.000000   0.000000
    22  C    0.000000   0.000000   0.000000   0.000000   0.000000   0.000000
    23  C    0.000000   0.000000   0.000000   0.000000   0.000000   0.000000
    24  C    0.000000   0.000000   0.000000   0.000000   0.000000   0.000000
    25  C   -0.002231   0.000154  -0.000005  -0.000002   0.000028  -0.003604
    26  C   -0.000301  -0.000004   0.000000   0.000000   0.000005   0.000234
    27  C   -0.000040   0.000000   0.000000   0.000000   0.000000   0.000017
    28  H   -0.043342   0.419568  -0.035274   0.004246  -0.000102   0.006279
    29  H    0.005007  -0.042931   0.420203  -0.037912   0.005421  -0.000275
    30  H    0.000037   0.005108  -0.038633   0.419805  -0.042645   0.005699
    31  H    0.003278  -0.000337   0.005630  -0.030037   0.428519  -0.061191
    32  H   -0.000225  -0.000036  -0.000041   0.000107   0.003467  -0.004438
    33  H   -0.000224  -0.000037  -0.000043   0.000118   0.003488  -0.004646
    34  H    0.000008   0.000000   0.000000  -0.000001   0.000027  -0.000186
    35  H   -0.000013   0.000000   0.000000   0.000000  -0.000016  -0.000098
    36  H   -0.000013   0.000000   0.000000   0.000000  -0.000016  -0.000110
    37  H    0.000000   0.000000   0.000000   0.000000   0.000000   0.000000
    38  H    0.000000   0.000000   0.000000   0.000000   0.000000   0.000000
    39  H    0.000000   0.000000   0.000000   0.000000   0.000000   0.000000
    40  H    0.000000   0.000000   0.000000   0.000000   0.000000   0.000000
    41  H    0.000000   0.000000   0.000000   0.000000   0.000000   0.000000
    42  H    0.000000   0.000000   0.000000   0.000000   0.000000   0.000000
    43  H    0.000000   0.000000   0.000000   0.000000   0.000000   0.000000
    44  H    0.000000   0.000000   0.000000   0.000000   0.000000   0.000000
    45  H    0.000000   0.000000   0.000000   0.000000   0.000000   0.000000
    46  H    0.000001   0.000000   0.000000   0.000000   0.000000   0.000000
    47  H    0.000000   0.000000   0.000000   0.000000   0.000000   0.000000
    48  H    0.000000   0.000007  -0.000001   0.000000  -0.000039  -0.001043
    49  H    0.000017  -0.000019   0.000000   0.000000   0.000001  -0.000044
    50  H    0.000001   0.000000   0.000000   0.000000   0.000000   0.000001
               7          8          9         10         11         12
     1  C    0.002526  -0.020877   0.328464   0.000000   0.000000   0.000000
     2  C    0.001770   0.002616  -0.040631   0.000000   0.000000   0.000000
     3  C   -0.000279  -0.000197   0.001240   0.000000   0.000000   0.000000
     4  C    0.002114  -0.000280   0.002358   0.000000   0.000000   0.000000
     5  C   -0.032840   0.000823   0.000245   0.000000   0.000000   0.000000
     6  C    0.351074  -0.064212  -0.100798   0.000000   0.000000   0.000000
     7  N    6.413852   0.462365   0.024092   0.000000   0.000000   0.000000
     8  C    0.462365   4.638333   0.264180   0.000000   0.000000   0.000000
     9  S    0.024092   0.264180  15.399113   0.000001   0.000000   0.000000
    10  C    0.000000   0.000000   0.000001   4.741708   0.281801  -0.022235
    11  S    0.000000   0.000000   0.000000   0.281801  15.355417   0.333802
    12  C    0.000000   0.000000   0.000000  -0.022235   0.333802   4.770763
    13  C    0.000000   0.000000   0.000000  -0.067170  -0.089657   0.506426
    14  N    0.000000   0.000000   0.000000   0.454285   0.016743   0.004450
    15  C    0.333617  -0.058344   0.006651   0.000000   0.000000   0.000000
    16  C   -0.010760  -0.008302  -0.000077   0.000000   0.000000   0.000000
    17  C    0.000000   0.000000   0.000000  -0.061287   0.005976   0.001351
    18  C    0.000000   0.000000   0.000000   0.004084  -0.000285  -0.000922
    19  C    0.000000   0.000000   0.000000   0.002038  -0.036316   0.519419
    20  C    0.000000   0.000000   0.000000  -0.000119   0.001235  -0.029020
    21  C    0.000000   0.000000   0.000000  -0.000555   0.002510  -0.024218
    22  C    0.000000   0.000000   0.000000  -0.001177   0.000983  -0.029449
    23  C    0.000002   0.000049  -0.000180  -0.026187   0.003161  -0.000242
    24  C    0.000000  -0.000006   0.000010   0.436869  -0.027297  -0.009710
    25  C   -0.005663   0.481575  -0.032162   0.000004  -0.000001   0.000000
    26  C   -0.000833  -0.004373  -0.006578  -0.000438   0.000028   0.000000
    27  C   -0.000032  -0.009244   0.004317  -0.003187   0.000069  -0.000003
    28  H   -0.000194   0.000012  -0.005683   0.000000   0.000000   0.000000
    29  H    0.000016   0.000008  -0.000228   0.000000   0.000000   0.000000
    30  H   -0.000056   0.000014   0.000097   0.000000   0.000000   0.000000
    31  H   -0.004935  -0.000411  -0.000625   0.000000   0.000000   0.000000
    32  H   -0.031624   0.002048  -0.000236   0.000000   0.000000   0.000000
    33  H   -0.031495   0.001984  -0.000241   0.000000   0.000000   0.000000
    34  H    0.002754  -0.000386   0.000063   0.000000   0.000000   0.000000
    35  H   -0.000819   0.002049  -0.000287   0.000000   0.000000   0.000000
    36  H   -0.000813   0.001856  -0.000282   0.000000   0.000000   0.000000
    37  H    0.000000   0.000000  -0.000001  -0.005153  -0.000089   0.000177
    38  H    0.000000   0.000000  -0.000001  -0.004616  -0.000118   0.000172
    39  H    0.000000   0.000000   0.000000  -0.000224   0.000038   0.000026
    40  H    0.000000   0.000000   0.000000  -0.000166  -0.000021  -0.000047
    41  H    0.000000   0.000000   0.000000  -0.000138  -0.000025  -0.000045
    42  H    0.000000   0.000000   0.000000   0.000044  -0.006274  -0.043302
    43  H    0.000000   0.000000   0.000000   0.000008  -0.000242   0.005163
    44  H    0.000000   0.000000   0.000000   0.000012   0.000091   0.000002
    45  H    0.000000   0.000000   0.000000  -0.000349  -0.000569   0.003731
    46  H    0.000000   0.000054  -0.000124  -0.002351  -0.000376   0.000000
    47  H    0.000000   0.000002   0.000000  -0.051716  -0.010609  -0.000159
    48  H   -0.000293  -0.058593   0.006547   0.000001   0.000000   0.000000
    49  H    0.000236  -0.003090   0.003484   0.000002   0.000000   0.000000
    50  H   -0.000001   0.000481   0.000002   0.000791  -0.000045   0.000001
              13         14         15         16         17         18
     1  C    0.000000   0.000000   0.001748  -0.000013   0.000000   0.000000
     2  C    0.000000   0.000000   0.000097  -0.000002   0.000000   0.000000
     3  C    0.000000   0.000000  -0.000092   0.000001   0.000000   0.000000
     4  C    0.000000   0.000000  -0.000268   0.000000   0.000000   0.000000
     5  C    0.000000   0.000000   0.000866   0.000076   0.000000   0.000000
     6  C    0.000000   0.000000  -0.077845   0.003157   0.000000   0.000000
     7  N    0.000000   0.000000   0.333617  -0.010760   0.000000   0.000000
     8  C    0.000000   0.000000  -0.058344  -0.008302   0.000000   0.000000
     9  S    0.000000   0.000000   0.006651  -0.000077   0.000000   0.000000
    10  C   -0.067170   0.454285   0.000000   0.000000  -0.061287   0.004084
    11  S   -0.089657   0.016743   0.000000   0.000000   0.005976  -0.000285
    12  C    0.506426   0.004450   0.000000   0.000000   0.001351  -0.000922
    13  C    4.700551   0.350246   0.000000   0.000000  -0.059240  -0.009930
    14  N    0.350246   6.405043   0.000000   0.000000   0.338288  -0.010815
    15  C    0.000000   0.000000   4.767978   0.391372   0.000000   0.000000
    16  C    0.000000   0.000000   0.391372   4.794701   0.000000   0.000000
    17  C   -0.059240   0.338288   0.000000   0.000000   4.797954   0.377939
    18  C   -0.009930  -0.010815   0.000000   0.000000   0.377939   4.790348
    19  C   -0.017593   0.001634   0.000000   0.000000   0.000048  -0.000023
    20  C   -0.026038  -0.000167   0.000000   0.000000  -0.000056   0.000012
    21  C   -0.020688   0.002111   0.000000   0.000000   0.000331  -0.000105
    22  C    0.474706  -0.017200   0.000000   0.000000   0.006877  -0.004650
    23  C    0.000581  -0.007732   0.000000  -0.000001  -0.009914   0.000352
    24  C    0.002328  -0.016715   0.000000   0.000000  -0.000804  -0.000310
    25  C    0.000000   0.000000   0.006458  -0.009219  -0.000001   0.000000
    26  C    0.000000   0.000000  -0.000471   0.000152  -0.000027   0.000001
    27  C    0.000000   0.000155   0.000009  -0.000055  -0.000037  -0.000007
    28  H    0.000000   0.000000   0.000013   0.000000   0.000000   0.000000
    29  H    0.000000   0.000000  -0.000001   0.000000   0.000000   0.000000
    30  H    0.000000   0.000000  -0.000018  -0.000001   0.000000   0.000000
    31  H    0.000000   0.000000   0.003042   0.000390   0.000000   0.000000
    32  H    0.000000   0.000000   0.395004  -0.024336   0.000000   0.000000
    33  H    0.000000   0.000000   0.395091  -0.024437   0.000000   0.000000
    34  H    0.000000   0.000000  -0.022371   0.397713   0.000000   0.000000
    35  H    0.000000   0.000000  -0.030178   0.406739   0.000000   0.000000
    36  H    0.000000   0.000000  -0.030085   0.406620   0.000000   0.000000
    37  H    0.002390  -0.033141   0.000000   0.000000   0.395862  -0.023895
    38  H    0.002501  -0.033503   0.000000   0.000000   0.395692  -0.023891
    39  H   -0.000224   0.002745   0.000000   0.000000  -0.024262   0.398779
    40  H    0.001401  -0.000799   0.000000   0.000000  -0.029891   0.408459
    41  H    0.001758  -0.000798   0.000000   0.000000  -0.030052   0.408637
    42  H    0.006308  -0.000208   0.000000   0.000000   0.000009   0.000000
    43  H   -0.000388   0.000013   0.000000   0.000000   0.000000   0.000000
    44  H    0.005515  -0.000044   0.000000   0.000000  -0.000005   0.000004
    45  H   -0.061646  -0.002296   0.000000   0.000000  -0.001308   0.001634
    46  H    0.000063  -0.000564   0.000000   0.000000   0.000659   0.001201
    47  H    0.000338   0.002864   0.000000   0.000000  -0.000330   0.000022
    48  H    0.000000   0.000000  -0.000715   0.003733   0.000000   0.000000
    49  H    0.000000   0.000005  -0.000024  -0.000018  -0.000041   0.000000
    50  H    0.000000   0.000004  -0.000006  -0.000028  -0.000023   0.000001
              19         20         21         22         23         24
     1  C    0.000000   0.000000   0.000000   0.000000   0.000000   0.000000
     2  C    0.000000   0.000000   0.000000   0.000000   0.000000   0.000000
     3  C    0.000000   0.000000   0.000000   0.000000   0.000000   0.000000
     4  C    0.000000   0.000000   0.000000   0.000000   0.000000   0.000000
     5  C    0.000000   0.000000   0.000000   0.000000   0.000000   0.000000
     6  C    0.000000   0.000000   0.000000   0.000000   0.000000   0.000000
     7  N    0.000000   0.000000   0.000000   0.000000   0.000002   0.000000
     8  C    0.000000   0.000000   0.000000   0.000000   0.000049  -0.000006
     9  S    0.000000   0.000000   0.000000   0.000000  -0.000180   0.000010
    10  C    0.002038  -0.000119  -0.000555  -0.001177  -0.026187   0.436869
    11  S   -0.036316   0.001235   0.002510   0.000983   0.003161  -0.027297
    12  C    0.519419  -0.029020  -0.024218  -0.029449  -0.000242  -0.009710
    13  C   -0.017593  -0.026038  -0.020688   0.474706   0.000581   0.002328
    14  N    0.001634  -0.000167   0.002111  -0.017200  -0.007732  -0.016715
    15  C    0.000000   0.000000   0.000000   0.000000   0.000000   0.000000
    16  C    0.000000   0.000000   0.000000   0.000000  -0.000001   0.000000
    17  C    0.000048  -0.000056   0.000331   0.006877  -0.009914  -0.000804
    18  C   -0.000023   0.000012  -0.000105  -0.004650   0.000352  -0.000310
    19  C    4.891331   0.504847  -0.020893  -0.025498   0.000002   0.000191
    20  C    0.504847   4.761633   0.498731  -0.017417   0.000000   0.000001
    21  C   -0.020893   0.498731   4.766014   0.523888   0.000000  -0.000020
    22  C   -0.025498  -0.017417   0.523888   4.824753  -0.000005   0.000092
    23  C    0.000002   0.000000   0.000000  -0.000005   4.828252   0.448560
    24  C    0.000191   0.000001  -0.000020   0.000092   0.448560   5.023084
    25  C    0.000000   0.000000   0.000000   0.000000  -0.006155   0.000072
    26  C    0.000000   0.000000   0.000000   0.000000   0.014401  -0.008177
    27  C    0.000000   0.000000   0.000000   0.000000   0.477231  -0.012876
    28  H    0.000000   0.000000   0.000000   0.000000   0.000000   0.000000
    29  H    0.000000   0.000000   0.000000   0.000000   0.000000   0.000000
    30  H    0.000000   0.000000   0.000000   0.000000   0.000000   0.000000
    31  H    0.000000   0.000000   0.000000   0.000000   0.000000   0.000000
    32  H    0.000000   0.000000   0.000000   0.000000   0.000000   0.000000
    33  H    0.000000   0.000000   0.000000   0.000000   0.000000   0.000000
    34  H    0.000000   0.000000   0.000000   0.000000   0.000000   0.000000
    35  H    0.000000   0.000000   0.000000   0.000000  -0.000002   0.000000
    36  H    0.000000   0.000000   0.000000   0.000000  -0.000002   0.000000
    37  H    0.000006  -0.000002   0.000010  -0.000249   0.000291   0.002554
    38  H    0.000005  -0.000002   0.000005  -0.000292   0.000147   0.002231
    39  H    0.000000   0.000001  -0.000026   0.000650   0.000030   0.000059
    40  H   -0.000010  -0.000010   0.000375  -0.003500  -0.000029  -0.000008
    41  H   -0.000013  -0.000008   0.000300  -0.003343  -0.000029  -0.000011
    42  H    0.419282  -0.035687   0.004466  -0.000244   0.000001   0.000023
    43  H   -0.043118   0.421454  -0.038755   0.005620   0.000000   0.000000
    44  H    0.005223  -0.038288   0.420216  -0.043249   0.000000   0.000000
    45  H   -0.000234   0.005057  -0.026354   0.420717   0.000001   0.000007
    46  H    0.000000   0.000000   0.000000  -0.000001   0.394068  -0.050854
    47  H   -0.000044   0.000002  -0.000001   0.000015  -0.048723   0.420051
    48  H    0.000000   0.000000   0.000000   0.000000   0.000470   0.000009
    49  H    0.000000   0.000000   0.000000   0.000000  -0.001364   0.000796
    50  H    0.000000   0.000000   0.000000   0.000000  -0.059631   0.001377
              25         26         27         28         29         30
     1  C   -0.002231  -0.000301  -0.000040  -0.043342   0.005007   0.000037
     2  C    0.000154  -0.000004   0.000000   0.419568  -0.042931   0.005108
     3  C   -0.000005   0.000000   0.000000  -0.035274   0.420203  -0.038633
     4  C   -0.000002   0.000000   0.000000   0.004246  -0.037912   0.419805
     5  C    0.000028   0.000005   0.000000  -0.000102   0.005421  -0.042645
     6  C   -0.003604   0.000234   0.000017   0.006279  -0.000275   0.005699
     7  N   -0.005663  -0.000833  -0.000032  -0.000194   0.000016  -0.000056
     8  C    0.481575  -0.004373  -0.009244   0.000012   0.000008   0.000014
     9  S   -0.032162  -0.006578   0.004317  -0.005683  -0.000228   0.000097
    10  C    0.000004  -0.000438  -0.003187   0.000000   0.000000   0.000000
    11  S   -0.000001   0.000028   0.000069   0.000000   0.000000   0.000000
    12  C    0.000000   0.000000  -0.000003   0.000000   0.000000   0.000000
    13  C    0.000000   0.000000   0.000000   0.000000   0.000000   0.000000
    14  N    0.000000   0.000000   0.000155   0.000000   0.000000   0.000000
    15  C    0.006458  -0.000471   0.000009   0.000013  -0.000001  -0.000018
    16  C   -0.009219   0.000152  -0.000055   0.000000   0.000000  -0.000001
    17  C   -0.000001  -0.000027  -0.000037   0.000000   0.000000   0.000000
    18  C    0.000000   0.000001  -0.000007   0.000000   0.000000   0.000000
    19  C    0.000000   0.000000   0.000000   0.000000   0.000000   0.000000
    20  C    0.000000   0.000000   0.000000   0.000000   0.000000   0.000000
    21  C    0.000000   0.000000   0.000000   0.000000   0.000000   0.000000
    22  C    0.000000   0.000000   0.000000   0.000000   0.000000   0.000000
    23  C   -0.006155   0.014401   0.477231   0.000000   0.000000   0.000000
    24  C    0.000072  -0.008177  -0.012876   0.000000   0.000000   0.000000
    25  C    5.001686   0.466476  -0.001772  -0.000011   0.000000   0.000000
    26  C    0.466476   4.818817   0.431437   0.000004   0.000000   0.000000
    27  C   -0.001772   0.431437   4.858507   0.000000   0.000000   0.000000
    28  H   -0.000011   0.000004   0.000000   0.561127  -0.006688  -0.000265
    29  H    0.000000   0.000000   0.000000  -0.006688   0.564921  -0.006830
    30  H    0.000000   0.000000   0.000000  -0.000265  -0.006830   0.567674
    31  H   -0.000013   0.000001   0.000000   0.000063  -0.000228  -0.007807
    32  H   -0.000138   0.000038  -0.000002   0.000000   0.000000   0.000003
    33  H   -0.000112   0.000041  -0.000002   0.000000   0.000000   0.000003
    34  H    0.000743  -0.000036   0.000003   0.000000   0.000000   0.000000
    35  H   -0.003465   0.000433  -0.000039   0.000000   0.000000   0.000000
    36  H   -0.003546   0.000486  -0.000045   0.000000   0.000000   0.000000
    37  H    0.000001  -0.000098   0.000114   0.000000   0.000000   0.000000
    38  H    0.000001  -0.000098   0.000148   0.000000   0.000000   0.000000
    39  H    0.000000   0.000000  -0.000004   0.000000   0.000000   0.000000
    40  H    0.000000   0.000000   0.000000   0.000000   0.000000   0.000000
    41  H    0.000000   0.000000   0.000000   0.000000   0.000000   0.000000
    42  H    0.000000   0.000000   0.000000   0.000000   0.000000   0.000000
    43  H    0.000000   0.000000   0.000000   0.000000   0.000000   0.000000
    44  H    0.000000   0.000000   0.000000   0.000000   0.000000   0.000000
    45  H    0.000000   0.000000   0.000000   0.000000   0.000000   0.000000
    46  H    0.000404  -0.000689  -0.034703   0.000000   0.000000   0.000000
    47  H   -0.000002   0.000311  -0.002206   0.000000   0.000000   0.000000
    48  H    0.409244  -0.035633   0.000993   0.000000   0.000000   0.000000
    49  H   -0.053991   0.398844  -0.038939   0.000001   0.000000   0.000000
    50  H   -0.000167  -0.056585   0.427010   0.000000   0.000000   0.000000
              31         32         33         34         35         36
     1  C    0.003278  -0.000225  -0.000224   0.000008  -0.000013  -0.000013
     2  C   -0.000337  -0.000036  -0.000037   0.000000   0.000000   0.000000
     3  C    0.005630  -0.000041  -0.000043   0.000000   0.000000   0.000000
     4  C   -0.030037   0.000107   0.000118  -0.000001   0.000000   0.000000
     5  C    0.428519   0.003467   0.003488   0.000027  -0.000016  -0.000016
     6  C   -0.061191  -0.004438  -0.004646  -0.000186  -0.000098  -0.000110
     7  N   -0.004935  -0.031624  -0.031495   0.002754  -0.000819  -0.000813
     8  C   -0.000411   0.002048   0.001984  -0.000386   0.002049   0.001856
     9  S   -0.000625  -0.000236  -0.000241   0.000063  -0.000287  -0.000282
    10  C    0.000000   0.000000   0.000000   0.000000   0.000000   0.000000
    11  S    0.000000   0.000000   0.000000   0.000000   0.000000   0.000000
    12  C    0.000000   0.000000   0.000000   0.000000   0.000000   0.000000
    13  C    0.000000   0.000000   0.000000   0.000000   0.000000   0.000000
    14  N    0.000000   0.000000   0.000000   0.000000   0.000000   0.000000
    15  C    0.003042   0.395004   0.395091  -0.022371  -0.030178  -0.030085
    16  C    0.000390  -0.024336  -0.024437   0.397713   0.406739   0.406620
    17  C    0.000000   0.000000   0.000000   0.000000   0.000000   0.000000
    18  C    0.000000   0.000000   0.000000   0.000000   0.000000   0.000000
    19  C    0.000000   0.000000   0.000000   0.000000   0.000000   0.000000
    20  C    0.000000   0.000000   0.000000   0.000000   0.000000   0.000000
    21  C    0.000000   0.000000   0.000000   0.000000   0.000000   0.000000
    22  C    0.000000   0.000000   0.000000   0.000000   0.000000   0.000000
    23  C    0.000000   0.000000   0.000000   0.000000  -0.000002  -0.000002
    24  C    0.000000   0.000000   0.000000   0.000000   0.000000   0.000000
    25  C   -0.000013  -0.000138  -0.000112   0.000743  -0.003465  -0.003546
    26  C    0.000001   0.000038   0.000041  -0.000036   0.000433   0.000486
    27  C    0.000000  -0.000002  -0.000002   0.000003  -0.000039  -0.000045
    28  H    0.000063   0.000000   0.000000   0.000000   0.000000   0.000000
    29  H   -0.000228   0.000000   0.000000   0.000000   0.000000   0.000000
    30  H   -0.007807   0.000003   0.000003   0.000000   0.000000   0.000000
    31  H    0.568998  -0.000444  -0.000497   0.000039  -0.000018  -0.000019
    32  H   -0.000444   0.575718  -0.047283  -0.004381   0.006676  -0.006511
    33  H   -0.000497  -0.047283   0.575895  -0.004575  -0.006465   0.006668
    34  H    0.000039  -0.004381  -0.004575   0.531764  -0.021431  -0.021557
    35  H   -0.000018   0.006676  -0.006465  -0.021431   0.542704  -0.033485
    36  H   -0.000019  -0.006511   0.006668  -0.021557  -0.033485   0.543306
    37  H    0.000000   0.000000   0.000000   0.000000   0.000000   0.000000
    38  H    0.000000   0.000000   0.000000   0.000000   0.000000   0.000000
    39  H    0.000000   0.000000   0.000000   0.000000   0.000000   0.000000
    40  H    0.000000   0.000000   0.000000   0.000000   0.000000   0.000000
    41  H    0.000000   0.000000   0.000000   0.000000   0.000000   0.000000
    42  H    0.000000   0.000000   0.000000   0.000000   0.000000   0.000000
    43  H    0.000000   0.000000   0.000000   0.000000   0.000000   0.000000
    44  H    0.000000   0.000000   0.000000   0.000000   0.000000   0.000000
    45  H    0.000000   0.000000   0.000000   0.000000   0.000000   0.000000
    46  H    0.000000   0.000000   0.000000   0.000000   0.000000   0.000000
    47  H    0.000000   0.000000   0.000000   0.000000   0.000000   0.000000
    48  H   -0.000011  -0.000037  -0.000012   0.000422   0.000195   0.000468
    49  H    0.000000   0.000000   0.000000   0.000002  -0.000018  -0.000017
    50  H    0.000000   0.000000   0.000000   0.000006  -0.000024  -0.000027
              37         38         39         40         41         42
     1  C    0.000000   0.000000   0.000000   0.000000   0.000000   0.000000
     2  C    0.000000   0.000000   0.000000   0.000000   0.000000   0.000000
     3  C    0.000000   0.000000   0.000000   0.000000   0.000000   0.000000
     4  C    0.000000   0.000000   0.000000   0.000000   0.000000   0.000000
     5  C    0.000000   0.000000   0.000000   0.000000   0.000000   0.000000
     6  C    0.000000   0.000000   0.000000   0.000000   0.000000   0.000000
     7  N    0.000000   0.000000   0.000000   0.000000   0.000000   0.000000
     8  C    0.000000   0.000000   0.000000   0.000000   0.000000   0.000000
     9  S   -0.000001  -0.000001   0.000000   0.000000   0.000000   0.000000
    10  C   -0.005153  -0.004616  -0.000224  -0.000166  -0.000138   0.000044
    11  S   -0.000089  -0.000118   0.000038  -0.000021  -0.000025  -0.006274
    12  C    0.000177   0.000172   0.000026  -0.000047  -0.000045  -0.043302
    13  C    0.002390   0.002501  -0.000224   0.001401   0.001758   0.006308
    14  N   -0.033141  -0.033503   0.002745  -0.000799  -0.000798  -0.000208
    15  C    0.000000   0.000000   0.000000   0.000000   0.000000   0.000000
    16  C    0.000000   0.000000   0.000000   0.000000   0.000000   0.000000
    17  C    0.395862   0.395692  -0.024262  -0.029891  -0.030052   0.000009
    18  C   -0.023895  -0.023891   0.398779   0.408459   0.408637   0.000000
    19  C    0.000006   0.000005   0.000000  -0.000010  -0.000013   0.419282
    20  C   -0.000002  -0.000002   0.000001  -0.000010  -0.000008  -0.035687
    21  C    0.000010   0.000005  -0.000026   0.000375   0.000300   0.004466
    22  C   -0.000249  -0.000292   0.000650  -0.003500  -0.003343  -0.000244
    23  C    0.000291   0.000147   0.000030  -0.000029  -0.000029   0.000001
    24  C    0.002554   0.002231   0.000059  -0.000008  -0.000011   0.000023
    25  C    0.000001   0.000001   0.000000   0.000000   0.000000   0.000000
    26  C   -0.000098  -0.000098   0.000000   0.000000   0.000000   0.000000
    27  C    0.000114   0.000148  -0.000004   0.000000   0.000000   0.000000
    28  H    0.000000   0.000000   0.000000   0.000000   0.000000   0.000000
    29  H    0.000000   0.000000   0.000000   0.000000   0.000000   0.000000
    30  H    0.000000   0.000000   0.000000   0.000000   0.000000   0.000000
    31  H    0.000000   0.000000   0.000000   0.000000   0.000000   0.000000
    32  H    0.000000   0.000000   0.000000   0.000000   0.000000   0.000000
    33  H    0.000000   0.000000   0.000000   0.000000   0.000000   0.000000
    34  H    0.000000   0.000000   0.000000   0.000000   0.000000   0.000000
    35  H    0.000000   0.000000   0.000000   0.000000   0.000000   0.000000
    36  H    0.000000   0.000000   0.000000   0.000000   0.000000   0.000000
    37  H    0.589044  -0.053138  -0.004877   0.006952  -0.006744  -0.000001
    38  H   -0.053138   0.589156  -0.004500  -0.006842   0.006965  -0.000001
    39  H   -0.004877  -0.004500   0.537539  -0.022044  -0.021770   0.000000
    40  H    0.006952  -0.006842  -0.022044   0.537424  -0.031990   0.000000
    41  H   -0.006744   0.006965  -0.021770  -0.031990   0.536076   0.000000
    42  H   -0.000001  -0.000001   0.000000   0.000000   0.000000   0.558560
    43  H    0.000000   0.000000   0.000000   0.000001   0.000001  -0.006634
    44  H    0.000000   0.000000  -0.000002   0.000002   0.000002  -0.000269
    45  H   -0.000034  -0.000064   0.000684  -0.000536  -0.000867   0.000062
    46  H   -0.001220  -0.000767   0.000127  -0.000056  -0.000052   0.000000
    47  H   -0.000043  -0.000052  -0.000001   0.000000   0.000000  -0.000003
    48  H    0.000000   0.000000   0.000000   0.000000   0.000000   0.000000
    49  H   -0.000034  -0.000037   0.000003   0.000000   0.000000   0.000000
    50  H   -0.000025  -0.000022   0.000000   0.000000   0.000000   0.000000
              43         44         45         46         47         48
     1  C    0.000000   0.000000   0.000000   0.000001   0.000000   0.000000
     2  C    0.000000   0.000000   0.000000   0.000000   0.000000   0.000007
     3  C    0.000000   0.000000   0.000000   0.000000   0.000000  -0.000001
     4  C    0.000000   0.000000   0.000000   0.000000   0.000000   0.000000
     5  C    0.000000   0.000000   0.000000   0.000000   0.000000  -0.000039
     6  C    0.000000   0.000000   0.000000   0.000000   0.000000  -0.001043
     7  N    0.000000   0.000000   0.000000   0.000000   0.000000  -0.000293
     8  C    0.000000   0.000000   0.000000   0.000054   0.000002  -0.058593
     9  S    0.000000   0.000000   0.000000  -0.000124   0.000000   0.006547
    10  C    0.000008   0.000012  -0.000349  -0.002351  -0.051716   0.000001
    11  S   -0.000242   0.000091  -0.000569  -0.000376  -0.010609   0.000000
    12  C    0.005163   0.000002   0.003731   0.000000  -0.000159   0.000000
    13  C   -0.000388   0.005515  -0.061646   0.000063   0.000338   0.000000
    14  N    0.000013  -0.000044  -0.002296  -0.000564   0.002864   0.000000
    15  C    0.000000   0.000000   0.000000   0.000000   0.000000  -0.000715
    16  C    0.000000   0.000000   0.000000   0.000000   0.000000   0.003733
    17  C    0.000000  -0.000005  -0.001308   0.000659  -0.000330   0.000000
    18  C    0.000000   0.000004   0.001634   0.001201   0.000022   0.000000
    19  C   -0.043118   0.005223  -0.000234   0.000000  -0.000044   0.000000
    20  C    0.421454  -0.038288   0.005057   0.000000   0.000002   0.000000
    21  C   -0.038755   0.420216  -0.026354   0.000000  -0.000001   0.000000
    22  C    0.005620  -0.043249   0.420717  -0.000001   0.000015   0.000000
    23  C    0.000000   0.000000   0.000001   0.394068  -0.048723   0.000470
    24  C    0.000000   0.000000   0.000007  -0.050854   0.420051   0.000009
    25  C    0.000000   0.000000   0.000000   0.000404  -0.000002   0.409244
    26  C    0.000000   0.000000   0.000000  -0.000689   0.000311  -0.035633
    27  C    0.000000   0.000000   0.000000  -0.034703  -0.002206   0.000993
    28  H    0.000000   0.000000   0.000000   0.000000   0.000000   0.000000
    29  H    0.000000   0.000000   0.000000   0.000000   0.000000   0.000000
    30  H    0.000000   0.000000   0.000000   0.000000   0.000000   0.000000
    31  H    0.000000   0.000000   0.000000   0.000000   0.000000  -0.000011
    32  H    0.000000   0.000000   0.000000   0.000000   0.000000  -0.000037
    33  H    0.000000   0.000000   0.000000   0.000000   0.000000  -0.000012
    34  H    0.000000   0.000000   0.000000   0.000000   0.000000   0.000422
    35  H    0.000000   0.000000   0.000000   0.000000   0.000000   0.000195
    36  H    0.000000   0.000000   0.000000   0.000000   0.000000   0.000468
    37  H    0.000000   0.000000  -0.000034  -0.001220  -0.000043   0.000000
    38  H    0.000000   0.000000  -0.000064  -0.000767  -0.000052   0.000000
    39  H    0.000000  -0.000002   0.000684   0.000127  -0.000001   0.000000
    40  H    0.000001   0.000002  -0.000536  -0.000056   0.000000   0.000000
    41  H    0.000001   0.000002  -0.000867  -0.000052   0.000000   0.000000
    42  H   -0.006634  -0.000269   0.000062   0.000000  -0.000003   0.000000
    43  H    0.564373  -0.006811  -0.000226   0.000000   0.000000   0.000000
    44  H   -0.006811   0.569105  -0.007999   0.000000   0.000000   0.000000
    45  H   -0.000226  -0.007999   0.576494  -0.000002   0.000000   0.000000
    46  H    0.000000   0.000000  -0.000002   0.593871   0.006723   0.000067
    47  H    0.000000   0.000000   0.000000   0.006723   0.578862   0.000006
    48  H    0.000000   0.000000   0.000000   0.000067   0.000006   0.571811
    49  H    0.000000   0.000000   0.000000   0.007125   0.000068   0.005964
    50  H    0.000000   0.000000   0.000000   0.006596   0.006306   0.005247
              49         50
     1  C    0.000017   0.000001
     2  C   -0.000019   0.000000
     3  C    0.000000   0.000000
     4  C    0.000000   0.000000
     5  C    0.000001   0.000000
     6  C   -0.000044   0.000001
     7  N    0.000236  -0.000001
     8  C   -0.003090   0.000481
     9  S    0.003484   0.000002
    10  C    0.000002   0.000791
    11  S    0.000000  -0.000045
    12  C    0.000000   0.000001
    13  C    0.000000   0.000000
    14  N    0.000005   0.000004
    15  C   -0.000024  -0.000006
    16  C   -0.000018  -0.000028
    17  C   -0.000041  -0.000023
    18  C    0.000000   0.000001
    19  C    0.000000   0.000000
    20  C    0.000000   0.000000
    21  C    0.000000   0.000000
    22  C    0.000000   0.000000
    23  C   -0.001364  -0.059631
    24  C    0.000796   0.001377
    25  C   -0.053991  -0.000167
    26  C    0.398844  -0.056585
    27  C   -0.038939   0.427010
    28  H    0.000001   0.000000
    29  H    0.000000   0.000000
    30  H    0.000000   0.000000
    31  H    0.000000   0.000000
    32  H    0.000000   0.000000
    33  H    0.000000   0.000000
    34  H    0.000002   0.000006
    35  H   -0.000018  -0.000024
    36  H   -0.000017  -0.000027
    37  H   -0.000034  -0.000025
    38  H   -0.000037  -0.000022
    39  H    0.000003   0.000000
    40  H    0.000000   0.000000
    41  H    0.000000   0.000000
    42  H    0.000000   0.000000
    43  H    0.000000   0.000000
    44  H    0.000000   0.000000
    45  H    0.000000   0.000000
    46  H    0.007125   0.006596
    47  H    0.000068   0.006306
    48  H    0.005964   0.005247
    49  H    0.587268   0.006361
    50  H    0.006361   0.591224
 Mulliken charges:
               1
     1  C    0.004819
     2  C   -0.199462
     3  C   -0.048845
     4  C   -0.081698
     5  C   -0.149648
     6  C    0.342413
     7  N   -0.473784
     8  C    0.369869
     9  S    0.147270
    10  C    0.325420
    11  S    0.170067
    12  C    0.013869
    13  C    0.297460
    14  N   -0.454604
    15  C   -0.081529
    16  C   -0.327406
    17  C   -0.103708
    18  C   -0.316640
    19  C   -0.200282
    20  C   -0.046160
    21  C   -0.087342
    22  C   -0.112030
    23  C   -0.007404
    24  C   -0.211523
    25  C   -0.244586
    26  C   -0.017368
    27  C   -0.096820
    28  H    0.100244
    29  H    0.099516
    30  H    0.097815
    31  H    0.096612
    32  H    0.136669
    33  H    0.136780
    34  H    0.141380
    35  H    0.137563
    36  H    0.137123
    37  H    0.131344
    38  H    0.130921
    39  H    0.137252
    40  H    0.141335
    41  H    0.142145
    42  H    0.103870
    43  H    0.099540
    44  H    0.096493
    45  H    0.094098
    46  H    0.080802
    47  H    0.098322
    48  H    0.091192
    49  H    0.087458
    50  H    0.071174
 Sum of Mulliken charges =   1.00000
 Mulliken charges with hydrogens summed into heavy atoms:
               1
     1  C    0.004819
     2  C   -0.099218
     3  C    0.050672
     4  C    0.016117
     5  C   -0.053036
     6  C    0.342413
     7  N   -0.473784
     8  C    0.369869
     9  S    0.147270
    10  C    0.325420
    11  S    0.170067
    12  C    0.013869
    13  C    0.297460
    14  N   -0.454604
    15  C    0.191920
    16  C    0.088660
    17  C    0.158557
    18  C    0.104092
    19  C   -0.096412
    20  C    0.053380
    21  C    0.009151
    22  C   -0.017932
    23  C    0.073399
    24  C   -0.113202
    25  C   -0.153393
    26  C    0.070090
    27  C   -0.025646
 Electronic spatial extent (au):  <R**2>=          24001.6356
 Charge=              1.0000 electrons
 Dipole moment (field-independent basis, Debye):
    X=              1.2745    Y=             -0.0716    Z=              0.0205  Tot=              1.2767
 Quadrupole moment (field-independent basis, Debye-Ang):
   XX=              8.3726   YY=           -130.2853   ZZ=           -180.2352
   XY=             16.8915   XZ=              0.0262   YZ=              0.0113
 Traceless Quadrupole moment (field-independent basis, Debye-Ang):
   XX=            109.0886   YY=            -29.5694   ZZ=            -79.5192
   XY=             16.8915   XZ=              0.0262   YZ=              0.0113
 Octapole moment (field-independent basis, Debye-Ang**2):
  XXX=             41.8772  YYY=             -1.7170  ZZZ=              0.3367  XYY=             41.3306
  XXY=            -18.8734  XXZ=             -1.5761  XZZ=              2.5389  YZZ=              2.4249
  YYZ=              0.2147  XYZ=              1.0645
 Hexadecapole moment (field-independent basis, Debye-Ang**3):
 XXXX=         -18484.2434 YYYY=          -2598.5072 ZZZZ=           -227.0118 XXXY=             54.3118
 XXXZ=              7.9851 YYYX=            128.0163 YYYZ=              0.5014 ZZZX=             -0.4462
 ZZZY=             -0.2964 XXYY=          -4236.2917 XXZZ=          -5418.3298 YYZZ=           -552.0905
 XXYZ=              2.0570 YYXZ=             -0.2787 ZZXY=             59.2188
 N-N= 2.398811261870D+03 E-N=-8.986183546343D+03  KE= 1.788496052328D+03
 1\1\GINC-C06B02N03\SP\RPBE1PBE TD-FC\6-311G(2d,p)\C23H23N2S2(1+)\LHLAI
 _PKUHPC\30-Oct-2020\0\\# td PBE1PBE/6-311g(2d,p)\\3\\1,1\C,0,5.598601,
 -1.341094,-0.007061\C,0,6.472492,-2.422432,-0.011892\C,0,7.84758,-2.15
 9226,-0.013286\C,0,8.315634,-0.837298,-0.010001\C,0,7.430522,0.245543,
 -0.005081\C,0,6.051786,-0.014271,-0.00337\N,0,5.008669,0.953335,0.0016
 98\C,0,3.735978,0.440659,0.000627\S,0,3.784358,-1.393975,-0.004841\C,0
 ,-3.757932,0.702261,0.00122\S,0,-5.015177,2.011654,-0.006267\C,0,-6.31
 2514,0.749865,-0.007997\C,0,-5.765462,-0.549197,-0.002665\N,0,-4.33684
 5,-0.54551,0.004333\C,0,5.463856,2.384446,0.006824\C,0,4.44273,3.51883
 3,0.02309\C,0,-3.409521,-1.720425,0.016855\C,0,-3.977526,-3.137934,0.0
 4325\C,0,-7.682542,0.994144,-0.01461\C,0,-8.550732,-0.099379,-0.01652\
 C,0,-8.029944,-1.40082,-0.012208\C,0,-6.6534,-1.640134,-0.005468\C,0,-
 1.192737,0.448543,0.001786\C,0,-2.420801,1.123289,0.003079\C,0,2.50826
 3,1.103976,0.002676\C,0,1.265069,0.461367,0.001302\C,0,0.035449,1.1225
 18,0.003368\H,0,6.101367,-3.440361,-0.014614\H,0,8.550709,-2.983856,-0
 .017075\H,0,9.382294,-0.644911,-0.011373\H,0,7.819986,1.254521,-0.0030
 04\H,0,6.097547,2.493575,-0.880704\H,0,6.110765,2.481774,0.886059\H,0,
 5.011773,4.454819,0.030058\H,0,3.819706,3.515333,0.920655\H,0,3.811538
 ,3.533932,-0.868586\H,0,-2.771988,-1.587563,0.897926\H,0,-2.779255,-1.
 615513,-0.873313\H,0,-3.120195,-3.819797,0.06035\H,0,-4.560476,-3.3773
 42,-0.84858\H,0,-4.567649,-3.340716,0.939512\H,0,-8.062971,2.008762,-0
 .018462\H,0,-9.622367,0.060872,-0.021732\H,0,-8.70448,-2.249417,-0.014
 335\H,0,-6.310509,-2.658897,-0.003059\H,0,-1.143829,-0.633631,-0.00170
 1\H,0,-2.330639,2.207101,0.003995\H,0,2.501254,2.181621,0.005248\H,0,1
 .239239,-0.628356,-0.001612\H,0,0.029416,2.21102,0.006356\\Version=AM6
 4L-G09RevD.01\State=1-A\HF=-1794.7681151\RMSD=6.694e-09\PG=C01 [X(C23H
 23N2S2)]\\@


    THE DOUGHNUT CREED
 AS YOU RAMBLE ON THROUGH LIFE, BROTHER
 WHATEVER BE YOUR GOAL
 KEEP YOUR EYE UPON THE DOUGHNUT
 AND NOT UPON THE HOLE.
 Job cpu time:       0 days  5 hours 49 minutes 36.0 seconds.
 File lengths (MBytes):  RWF=    701 Int=      0 D2E=      0 Chk=     80 Scr=      1
 Normal termination of Gaussian 09 at Fri Oct 30 16:13:21 2020.
