 Entering Gaussian System, Link 0=/lustre1/lhlai_pkuhpc/wlzhang/MD/g09/g09
 Input=5.gjf
 Output=5.log
 Initial command:
 /lustre1/lhlai_pkuhpc/wlzhang/MD/g09/l1.exe "/lustre1/lhlai_pkuhpc/ljr/physchemlab/tddft/Gau-9376.inp" -scrdir="/lustre1/lhlai_pkuhpc/ljr/physchemlab/tddft/"
 Default is to use a total of  28 processors:
                               28 via shared-memory
                                1 via Linda
 Entering Link 1 = /lustre1/lhlai_pkuhpc/wlzhang/MD/g09/l1.exe PID=      9377.
  
 Copyright (c) 1988,1990,1992,1993,1995,1998,2003,2009,2013,
            Gaussian, Inc.  All Rights Reserved.
  
 This is part of the Gaussian(R) 09 program.  It is based on
 the Gaussian(R) 03 system (copyright 2003, Gaussian, Inc.),
 the Gaussian(R) 98 system (copyright 1998, Gaussian, Inc.),
 the Gaussian(R) 94 system (copyright 1995, Gaussian, Inc.),
 the Gaussian 92(TM) system (copyright 1992, Gaussian, Inc.),
 the Gaussian 90(TM) system (copyright 1990, Gaussian, Inc.),
 the Gaussian 88(TM) system (copyright 1988, Gaussian, Inc.),
 the Gaussian 86(TM) system (copyright 1986, Carnegie Mellon
 University), and the Gaussian 82(TM) system (copyright 1983,
 Carnegie Mellon University). Gaussian is a federally registered
 trademark of Gaussian, Inc.
  
 This software contains proprietary and confidential information,
 including trade secrets, belonging to Gaussian, Inc.
  
 This software is provided under written license and may be
 used, copied, transmitted, or stored only in accord with that
 written license.
  
 The following legend is applicable only to US Government
 contracts under FAR:
  
                    RESTRICTED RIGHTS LEGEND
  
 Use, reproduction and disclosure by the US Government is
 subject to restrictions as set forth in subparagraphs (a)
 and (c) of the Commercial Computer Software - Restricted
 Rights clause in FAR 52.227-19.
  
 Gaussian, Inc.
 340 Quinnipiac St., Bldg. 40, Wallingford CT 06492
  
  
 ---------------------------------------------------------------
 Warning -- This program may not be used in any manner that
 competes with the business of Gaussian, Inc. or will provide
 assistance to any competitor of Gaussian, Inc.  The licensee
 of this program is prohibited from giving any competitor of
 Gaussian, Inc. access to this program.  By using this program,
 the user acknowledges that Gaussian, Inc. is engaged in the
 business of creating and licensing software in the field of
 computational chemistry and represents and warrants to the
 licensee that it is not a competitor of Gaussian, Inc. and that
 it will not use this program in any manner prohibited above.
 ---------------------------------------------------------------
  

 Cite this work as:
 Gaussian 09, Revision D.01,
 M. J. Frisch, G. W. Trucks, H. B. Schlegel, G. E. Scuseria, 
 M. A. Robb, J. R. Cheeseman, G. Scalmani, V. Barone, B. Mennucci, 
 G. A. Petersson, H. Nakatsuji, M. Caricato, X. Li, H. P. Hratchian, 
 A. F. Izmaylov, J. Bloino, G. Zheng, J. L. Sonnenberg, M. Hada, 
 M. Ehara, K. Toyota, R. Fukuda, J. Hasegawa, M. Ishida, T. Nakajima, 
 Y. Honda, O. Kitao, H. Nakai, T. Vreven, J. A. Montgomery, Jr., 
 J. E. Peralta, F. Ogliaro, M. Bearpark, J. J. Heyd, E. Brothers, 
 K. N. Kudin, V. N. Staroverov, T. Keith, R. Kobayashi, J. Normand, 
 K. Raghavachari, A. Rendell, J. C. Burant, S. S. Iyengar, J. Tomasi, 
 M. Cossi, N. Rega, J. M. Millam, M. Klene, J. E. Knox, J. B. Cross, 
 V. Bakken, C. Adamo, J. Jaramillo, R. Gomperts, R. E. Stratmann, 
 O. Yazyev, A. J. Austin, R. Cammi, C. Pomelli, J. W. Ochterski, 
 R. L. Martin, K. Morokuma, V. G. Zakrzewski, G. A. Voth, 
 P. Salvador, J. J. Dannenberg, S. Dapprich, A. D. Daniels, 
 O. Farkas, J. B. Foresman, J. V. Ortiz, J. Cioslowski, 
 and D. J. Fox, Gaussian, Inc., Wallingford CT, 2013.
 
 ******************************************
 Gaussian 09:  AM64L-G09RevD.01 24-Apr-2013
                30-Oct-2020 
 ******************************************
 %nprocshared=20
 Will use up to   20 processors via shared memory.
 %mem=20GB
 -------------------------
 # td PBE1PBE/6-311g(2d,p)
 -------------------------
 1/38=1/1;
 2/12=2,17=6,18=5,40=1/2;
 3/5=4,6=6,7=102,11=9,16=1,25=1,30=1,74=-13/1,2,8,3;
 4//1;
 5/5=2,38=5/2;
 8/6=1,10=2/1;
 9/42=1,70=2/14;
 6/7=2,8=2,9=2,10=2/1;
 99/5=1,9=1/99;
 -
 5
 -
 Symbolic Z-matrix:
 Charge =  0 Multiplicity = 1
 C                    -11.73435  -1.46327   0.19782 
 C                    -13.19338  -1.96498   0.35753 
 C                    -14.1503  -1.36625  -0.66698 
 C                    -14.19788   0.14599  -0.4705 
 C                    -12.83981   0.78115  -0.26647 
 C                    -11.6992   0.06914  -0.02074 
 C                    -12.87855   2.29367  -0.39978 
 C                    -11.0146  -1.85389   1.51304 
 C                    -11.0878  -2.2093   -0.99652 
 C                    -10.43465   0.80866   0.02799 
 C                    -9.14771   0.36848   0.05175 
 C                    -7.97099   1.21879   0.06421 
 C                    -6.73849   0.61873   0.07015 
 C                    -5.44585   1.23796   0.07871 
 C                    -4.28035   0.5259    0.08157 
 C                    -2.94262   1.06356   0.08665 
 C                    -1.88554   0.18496   0.08738 
 C                    -0.48837   0.47979   0.08905 
 C                     0.48835  -0.47997   0.0888 
 C                     1.88551  -0.18514   0.08748 
 C                     2.9426   -1.06372   0.08625 
 C                     4.28032  -0.52604   0.08158 
 C                     5.44584  -1.23807   0.07809 
 C                     6.73846  -0.6188    0.07 
 C                     7.97098  -1.21881   0.06358 
 C                     9.14766  -0.36844   0.05185 
 C                     10.43462  -0.80855   0.02776 
 C                    -8.15655   2.71715   0.06916 
 C                    -2.76951   2.56417   0.08978 
 C                     2.76952  -2.56433   0.08844 
 C                     8.15658  -2.71718   0.06726 
 C                     11.6992  -0.06906  -0.0204 
 C                     11.73417   1.46349   0.19724 
 C                     13.19313   1.96558   0.35651 
 C                     14.15019   1.36602  -0.66737 
 C                     14.19804  -0.14598  -0.46921 
 C                     12.84001  -0.78117  -0.26499 
 C                     12.87926  -2.29377  -0.39697 
 C                     11.01455   1.85474   1.51235 
 C                     11.08739   2.20873  -0.99746 
 H                    -13.55232  -1.70396   1.36369 
 H                    -13.19205  -3.0614    0.30325 
 H                    -15.15326  -1.79811  -0.56313 
 H                    -13.81314  -1.59798  -1.68526 
 H                    -14.83672   0.39299   0.39494 
 H                    -14.68504   0.63122  -1.32931 
 H                    -12.32557   2.80964   0.39226 
 H                    -12.46648   2.63312  -1.36019 
 H                    -13.91343   2.64911  -0.35352 
 H                    -11.41656  -1.2807    2.35629 
 H                    -11.18387  -2.91818   1.71975 
 H                    -9.93618  -1.69079   1.48832 
 H                    -10.06241  -1.88524  -1.18785 
 H                    -11.06767  -3.28884  -0.80047 
 H                    -11.65326  -2.04544  -1.92009 
 H                    -10.55322   1.88629   0.00054 
 H                    -8.93161  -0.69444   0.04755 
 H                    -6.72721  -0.47233   0.06643 
 H                    -5.39418   2.32327   0.08144 
 H                    -4.35409  -0.56248   0.07848 
 H                    -2.13645  -0.8768    0.08543 
 H                    -0.17248   1.52161   0.08954 
 H                     0.17245  -1.5218    0.08857 
 H                     2.13642   0.87663   0.08623 
 H                     4.35404   0.56235   0.07936 
 H                     5.39419  -2.32338   0.07991 
 H                     6.72715   0.47227   0.06714 
 H                     8.93148   0.69446   0.04856 
 H                     10.55318  -1.88615  -0.0007 
 H                    -8.74339   3.03626   0.93992 
 H                    -7.20911   3.25789   0.09305 
 H                    -8.70491   3.04738  -0.82252 
 H                    -3.24193   3.01389  -0.7928 
 H                    -3.2485    3.01086   0.97035 
 H                    -1.72147   2.86794   0.09431 
 H                     1.72149  -2.86812   0.09284 
 H                     3.24189  -3.01351  -0.79444 
 H                     3.24857  -3.01155   0.96871 
 H                     7.20916  -3.25797   0.09101 
 H                     8.70469  -3.04668  -0.82484 
 H                     8.74368  -3.03698   0.9376 
 H                     13.1916   3.06196   0.30121 
 H                     13.5521   1.70556   1.36292 
 H                     15.15305   1.7982   -0.56397 
 H                     13.81298   1.59658  -1.68591 
 H                     14.83666  -0.39188   0.39671 
 H                     14.68556  -0.6321   -1.32732 
 H                     12.32356  -2.8093    0.3934 
 H                     12.47074  -2.63389  -1.35869 
 H                     13.91403  -2.64902  -0.34684 
 H                     11.41667   1.28203   2.35584 
 H                     11.18377   2.91916   1.71847 
 H                     9.93613   1.69157   1.48789 
 H                     10.06214   1.88418  -1.18871 
 H                     11.06685   3.28835  -0.80191 
 H                     11.65298   2.04467  -1.92092 
 
 Stoichiometry    C40H56
 Framework group  C1[X(C40H56)]
 Deg. of freedom   282
 Full point group                 C1      NOp   1
 Largest Abelian subgroup         C1      NOp   1
 Largest concise Abelian subgroup C1      NOp   1
                         Standard orientation:                         
 ---------------------------------------------------------------------
 Center     Atomic      Atomic             Coordinates (Angstroms)
 Number     Number       Type             X           Y           Z
 ---------------------------------------------------------------------
      1          6           0      -11.734347   -1.463270    0.197823
      2          6           0      -13.193380   -1.964978    0.357528
      3          6           0      -14.150305   -1.366251   -0.666975
      4          6           0      -14.197879    0.145991   -0.470499
      5          6           0      -12.839809    0.781151   -0.266473
      6          6           0      -11.699200    0.069135   -0.020735
      7          6           0      -12.878548    2.293672   -0.399781
      8          6           0      -11.014600   -1.853889    1.513038
      9          6           0      -11.087804   -2.209300   -0.996519
     10          6           0      -10.434650    0.808656    0.027994
     11          6           0       -9.147712    0.368476    0.051748
     12          6           0       -7.970994    1.218788    0.064208
     13          6           0       -6.738494    0.618732    0.070151
     14          6           0       -5.445853    1.237956    0.078711
     15          6           0       -4.280345    0.525898    0.081573
     16          6           0       -2.942615    1.063559    0.086650
     17          6           0       -1.885537    0.184962    0.087380
     18          6           0       -0.488371    0.479787    0.089053
     19          6           0        0.488347   -0.479969    0.088801
     20          6           0        1.885511   -0.185136    0.087475
     21          6           0        2.942600   -1.063720    0.086252
     22          6           0        4.280317   -0.526037    0.081579
     23          6           0        5.445840   -1.238065    0.078089
     24          6           0        6.738463   -0.618803    0.070000
     25          6           0        7.970984   -1.218814    0.063575
     26          6           0        9.147663   -0.368436    0.051849
     27          6           0       10.434624   -0.808549    0.027759
     28          6           0       -8.156553    2.717150    0.069156
     29          6           0       -2.769508    2.564166    0.089783
     30          6           0        2.769517   -2.564327    0.088440
     31          6           0        8.156583   -2.717179    0.067262
     32          6           0       11.699201   -0.069059   -0.020403
     33          6           0       11.734174    1.463486    0.197241
     34          6           0       13.193129    1.965583    0.356510
     35          6           0       14.150188    1.366019   -0.667374
     36          6           0       14.198042   -0.145980   -0.469211
     37          6           0       12.840010   -0.781172   -0.264991
     38          6           0       12.879257   -2.293768   -0.396971
     39          6           0       11.014549    1.854740    1.512348
     40          6           0       11.087391    2.208725   -0.997464
     41          1           0      -13.552321   -1.703956    1.363685
     42          1           0      -13.192047   -3.061404    0.303248
     43          1           0      -15.153264   -1.798105   -0.563126
     44          1           0      -13.813140   -1.597981   -1.685258
     45          1           0      -14.836724    0.392993    0.394939
     46          1           0      -14.685037    0.631223   -1.329306
     47          1           0      -12.325572    2.809643    0.392261
     48          1           0      -12.466482    2.633120   -1.360193
     49          1           0      -13.913425    2.649109   -0.353524
     50          1           0      -11.416556   -1.280703    2.356288
     51          1           0      -11.183867   -2.918184    1.719753
     52          1           0       -9.936176   -1.690791    1.488324
     53          1           0      -10.062409   -1.885242   -1.187849
     54          1           0      -11.067666   -3.288842   -0.800474
     55          1           0      -11.653264   -2.045445   -1.920085
     56          1           0      -10.553220    1.886292    0.000541
     57          1           0       -8.931611   -0.694439    0.047554
     58          1           0       -6.727213   -0.472334    0.066433
     59          1           0       -5.394175    2.323265    0.081444
     60          1           0       -4.354088   -0.562482    0.078481
     61          1           0       -2.136452   -0.876804    0.085428
     62          1           0       -0.172475    1.521613    0.089536
     63          1           0        0.172451   -1.521796    0.088568
     64          1           0        2.136416    0.876634    0.086232
     65          1           0        4.354044    0.562348    0.079364
     66          1           0        5.394192   -2.323379    0.079909
     67          1           0        6.727154    0.472266    0.067137
     68          1           0        8.931483    0.694460    0.048557
     69          1           0       10.553176   -1.886154   -0.000703
     70          1           0       -8.743395    3.036257    0.939921
     71          1           0       -7.209108    3.257895    0.093049
     72          1           0       -8.704911    3.047382   -0.822520
     73          1           0       -3.241932    3.013890   -0.792798
     74          1           0       -3.248496    3.010862    0.970351
     75          1           0       -1.721474    2.867936    0.094306
     76          1           0        1.721486   -2.868120    0.092840
     77          1           0        3.241891   -3.013511   -0.794442
     78          1           0        3.248565   -3.011550    0.968706
     79          1           0        7.209159   -3.257966    0.091008
     80          1           0        8.704687   -3.046679   -0.824841
     81          1           0        8.743681   -3.036978    0.937599
     82          1           0       13.191601    3.061957    0.301212
     83          1           0       13.552096    1.705563    1.362915
     84          1           0       15.153054    1.798199   -0.563974
     85          1           0       13.812978    1.596575   -1.685912
     86          1           0       14.836658   -0.391875    0.396706
     87          1           0       14.685561   -0.632101   -1.327317
     88          1           0       12.323558   -2.809301    0.393398
     89          1           0       12.470743   -2.633888   -1.358690
     90          1           0       13.914032   -2.649023   -0.346838
     91          1           0       11.416667    1.282028    2.355841
     92          1           0       11.183770    2.919158    1.718473
     93          1           0        9.936132    1.691574    1.487888
     94          1           0       10.062138    1.884180   -1.188707
     95          1           0       11.066849    3.288348   -0.801914
     96          1           0       11.652983    2.044667   -1.920915
 ---------------------------------------------------------------------
 Rotational constants (GHZ):      0.3478399      0.0099525      0.0097368
 Standard basis: 6-311G(2d,p) (5D, 7F)
 There are  1336 symmetry adapted cartesian basis functions of A   symmetry.
 There are  1256 symmetry adapted basis functions of A   symmetry.
  1256 basis functions,  1968 primitive gaussians,  1336 cartesian basis functions
   148 alpha electrons      148 beta electrons
       nuclear repulsion energy      3637.1605397729 Hartrees.
 NAtoms=   96 NActive=   96 NUniq=   96 SFac= 1.00D+00 NAtFMM=   60 NAOKFM=T Big=T
 Integral buffers will be    131072 words long.
 Regular integral format.
 Two-electron integral symmetry is turned on.
 One-electron integrals computed using PRISM.
 NBasis=  1256 RedAO= T EigKep=  8.03D-05  NBF=  1256
 NBsUse=  1256 1.00D-06 EigRej= -1.00D+00 NBFU=  1256
 ExpMin= 1.03D-01 ExpMax= 4.56D+03 ExpMxC= 6.82D+02 IAcc=1 IRadAn=         1 AccDes= 0.00D+00
 Harris functional with IExCor= 1009 and IRadAn=       1 diagonalized for initial guess.
 HarFok:  IExCor= 1009 AccDes= 0.00D+00 IRadAn=         1 IDoV= 1 UseB2=F ITyADJ=14
 ICtDFT=  3500011 ScaDFX=  1.000000  1.000000  1.000000  1.000000
 FoFCou: FMM=F IPFlag=           0 FMFlag=      100000 FMFlg1=        2001
         NFxFlg=           0 DoJE=T BraDBF=F KetDBF=T FulRan=T
         wScrn=  0.000000 ICntrl=     500 IOpCl=  0 I1Cent=   200000004 NGrid=           0
         NMat0=    1 NMatS0=      1 NMatT0=    0 NMatD0=    1 NMtDS0=    0 NMtDT0=    0
 Petite list used in FoFCou.
 Requested convergence on RMS density matrix=1.00D-08 within 128 cycles.
 Requested convergence on MAX density matrix=1.00D-06.
 Requested convergence on             energy=1.00D-06.
 No special actions if energy rises.
 Integral accuracy reduced to 1.0D-05 until final iterations.
 Initial convergence to 1.0D-05 achieved.  Increase integral accuracy.
 SCF Done:  E(RPBE1PBE) =  -1556.38711439     A.U. after   14 cycles
            NFock= 14  Conv=0.50D-08     -V/T= 2.0051
 DoSCS=F DFT=T ScalE2(SS,OS)=  1.000000  1.000000
 ExpMin= 1.03D-01 ExpMax= 4.56D+03 ExpMxC= 6.82D+02 IAcc=3 IRadAn=         5 AccDes= 0.00D+00
 HarFok:  IExCor=  205 AccDes= 0.00D+00 IRadAn=         5 IDoV=-2 UseB2=F ITyADJ=14
 ICtDFT= 12500011 ScaDFX=  1.000000  1.000000  1.000000  1.000000
 Range of M.O.s used for correlation:    41  1256
 NBasis=  1256 NAE=   148 NBE=   148 NFC=    40 NFV=     0
 NROrb=   1216 NOA=   108 NOB=   108 NVA=  1108 NVB=  1108

 **** Warning!!: The largest alpha MO coefficient is  0.16236591D+02


 **** Warning!!: The smallest alpha delta epsilon is  0.86146009D-01

 Would need an additional        933862200000 words for in-memory AO integral storage.
 Orbital symmetries:
       Occupied  (A) (A) (A) (A) (A) (A) (A) (A) (A) (A) (A) (A)
                 (A) (A) (A) (A) (A) (A) (A) (A) (A) (A) (A) (A)
                 (A) (A) (A) (A) (A) (A) (A) (A) (A) (A) (A) (A)
                 (A) (A) (A) (A) (A) (A) (A) (A) (A) (A) (A) (A)
                 (A) (A) (A) (A) (A) (A) (A) (A) (A) (A) (A) (A)
                 (A) (A) (A) (A) (A) (A) (A) (A) (A) (A) (A) (A)
                 (A) (A) (A) (A) (A) (A) (A) (A) (A) (A) (A) (A)
                 (A) (A) (A) (A) (A) (A) (A) (A) (A) (A) (A) (A)
                 (A) (A) (A) (A) (A) (A) (A) (A) (A) (A) (A) (A)
                 (A) (A) (A) (A) (A) (A) (A) (A) (A) (A) (A) (A)
                 (A) (A) (A) (A) (A) (A) (A) (A) (A) (A) (A) (A)
                 (A) (A) (A) (A) (A) (A) (A) (A) (A) (A) (A) (A)
                 (A) (A) (A) (A)
       Virtual   (A) (A) (A) (A) (A) (A) (A) (A) (A) (A) (A) (A)
                 (A) (A) (A) (A) (A) (A) (A) (A) (A) (A) (A) (A)
                 (A) (A) (A) (A) (A) (A) (A) (A) (A) (A) (A) (A)
                 (A) (A) (A) (A) (A) (A) (A) (A) (A) (A) (A) (A)
                 (A) (A) (A) (A) (A) (A) (A) (A) (A) (A) (A) (A)
                 (A) (A) (A) (A) (A) (A) (A) (A) (A) (A) (A) (A)
                 (A) (A) (A) (A) (A) (A) (A) (A) (A) (A) (A) (A)
                 (A) (A) (A) (A) (A) (A) (A) (A) (A) (A) (A) (A)
                 (A) (A) (A) (A) (A) (A) (A) (A) (A) (A) (A) (A)
                 (A) (A) (A) (A) (A) (A) (A) (A) (A) (A) (A) (A)
                 (A) (A) (A) (A) (A) (A) (A) (A) (A) (A) (A) (A)
                 (A) (A) (A) (A) (A) (A) (A) (A) (A) (A) (A) (A)
                 (A) (A) (A) (A) (A) (A) (A) (A) (A) (A) (A) (A)
                 (A) (A) (A) (A) (A) (A) (A) (A) (A) (A) (A) (A)
                 (A) (A) (A) (A) (A) (A) (A) (A) (A) (A) (A) (A)
                 (A) (A) (A) (A) (A) (A) (A) (A) (A) (A) (A) (A)
                 (A) (A) (A) (A) (A) (A) (A) (A) (A) (A) (A) (A)
                 (A) (A) (A) (A) (A) (A) (A) (A) (A) (A) (A) (A)
                 (A) (A) (A) (A) (A) (A) (A) (A) (A) (A) (A) (A)
                 (A) (A) (A) (A) (A) (A) (A) (A) (A) (A) (A) (A)
                 (A) (A) (A) (A) (A) (A) (A) (A) (A) (A) (A) (A)
                 (A) (A) (A) (A) (A) (A) (A) (A) (A) (A) (A) (A)
                 (A) (A) (A) (A) (A) (A) (A) (A) (A) (A) (A) (A)
                 (A) (A) (A) (A) (A) (A) (A) (A) (A) (A) (A) (A)
                 (A) (A) (A) (A) (A) (A) (A) (A) (A) (A) (A) (A)
                 (A) (A) (A) (A) (A) (A) (A) (A) (A) (A) (A) (A)
                 (A) (A) (A) (A) (A) (A) (A) (A) (A) (A) (A) (A)
                 (A) (A) (A) (A) (A) (A) (A) (A) (A) (A) (A) (A)
                 (A) (A) (A) (A) (A) (A) (A) (A) (A) (A) (A) (A)
                 (A) (A) (A) (A) (A) (A) (A) (A) (A) (A) (A) (A)
                 (A) (A) (A) (A) (A) (A) (A) (A) (A) (A) (A) (A)
                 (A) (A) (A) (A) (A) (A) (A) (A) (A) (A) (A) (A)
                 (A) (A) (A) (A) (A) (A) (A) (A) (A) (A) (A) (A)
                 (A) (A) (A) (A) (A) (A) (A) (A) (A) (A) (A) (A)
                 (A) (A) (A) (A) (A) (A) (A) (A) (A) (A) (A) (A)
                 (A) (A) (A) (A) (A) (A) (A) (A) (A) (A) (A) (A)
                 (A) (A) (A) (A) (A) (A) (A) (A) (A) (A) (A) (A)
                 (A) (A) (A) (A) (A) (A) (A) (A) (A) (A) (A) (A)
                 (A) (A) (A) (A) (A) (A) (A) (A) (A) (A) (A) (A)
                 (A) (A) (A) (A) (A) (A) (A) (A) (A) (A) (A) (A)
                 (A) (A) (A) (A) (A) (A) (A) (A) (A) (A) (A) (A)
                 (A) (A) (A) (A) (A) (A) (A) (A) (A) (A) (A) (A)
                 (A) (A) (A) (A) (A) (A) (A) (A) (A) (A) (A) (A)
                 (A) (A) (A) (A) (A) (A) (A) (A) (A) (A) (A) (A)
                 (A) (A) (A) (A) (A) (A) (A) (A) (A) (A) (A) (A)
                 (A) (A) (A) (A) (A) (A) (A) (A) (A) (A) (A) (A)
                 (A) (A) (A) (A) (A) (A) (A) (A) (A) (A) (A) (A)
                 (A) (A) (A) (A) (A) (A) (A) (A) (A) (A) (A) (A)
                 (A) (A) (A) (A) (A) (A) (A) (A) (A) (A) (A) (A)
                 (A) (A) (A) (A) (A) (A) (A) (A) (A) (A) (A) (A)
                 (A) (A) (A) (A) (A) (A) (A) (A) (A) (A) (A) (A)
                 (A) (A) (A) (A) (A) (A) (A) (A) (A) (A) (A) (A)
                 (A) (A) (A) (A) (A) (A) (A) (A) (A) (A) (A) (A)
                 (A) (A) (A) (A) (A) (A) (A) (A) (A) (A) (A) (A)
                 (A) (A) (A) (A) (A) (A) (A) (A) (A) (A) (A) (A)
                 (A) (A) (A) (A) (A) (A) (A) (A) (A) (A) (A) (A)
                 (A) (A) (A) (A) (A) (A) (A) (A) (A) (A) (A) (A)
                 (A) (A) (A) (A) (A) (A) (A) (A) (A) (A) (A) (A)
                 (A) (A) (A) (A) (A) (A) (A) (A) (A) (A) (A) (A)
                 (A) (A) (A) (A) (A) (A) (A) (A) (A) (A) (A) (A)
                 (A) (A) (A) (A) (A) (A) (A) (A) (A) (A) (A) (A)
                 (A) (A) (A) (A) (A) (A) (A) (A) (A) (A) (A) (A)
                 (A) (A) (A) (A) (A) (A) (A) (A) (A) (A) (A) (A)
                 (A) (A) (A) (A) (A) (A) (A) (A) (A) (A) (A) (A)
                 (A) (A) (A) (A) (A) (A) (A) (A) (A) (A) (A) (A)
                 (A) (A) (A) (A) (A) (A) (A) (A) (A) (A) (A) (A)
                 (A) (A) (A) (A) (A) (A) (A) (A) (A) (A) (A) (A)
                 (A) (A) (A) (A) (A) (A) (A) (A) (A) (A) (A) (A)
                 (A) (A) (A) (A) (A) (A) (A) (A) (A) (A) (A) (A)
                 (A) (A) (A) (A) (A) (A) (A) (A) (A) (A) (A) (A)
                 (A) (A) (A) (A) (A) (A) (A) (A) (A) (A) (A) (A)
                 (A) (A) (A) (A) (A) (A) (A) (A) (A) (A) (A) (A)
                 (A) (A) (A) (A) (A) (A) (A) (A) (A) (A) (A) (A)
                 (A) (A) (A) (A) (A) (A) (A) (A) (A) (A) (A) (A)
                 (A) (A) (A) (A) (A) (A) (A) (A) (A) (A) (A) (A)
                 (A) (A) (A) (A) (A) (A) (A) (A) (A) (A) (A) (A)
                 (A) (A) (A) (A) (A) (A) (A) (A) (A) (A) (A) (A)
                 (A) (A) (A) (A) (A) (A) (A) (A) (A) (A) (A) (A)
                 (A) (A) (A) (A) (A) (A) (A) (A) (A) (A) (A) (A)
                 (A) (A) (A) (A) (A) (A) (A) (A) (A) (A) (A) (A)
                 (A) (A) (A) (A) (A) (A) (A) (A) (A) (A) (A) (A)
                 (A) (A) (A) (A) (A) (A) (A) (A) (A) (A) (A) (A)
                 (A) (A) (A) (A) (A) (A) (A) (A) (A) (A) (A) (A)
                 (A) (A) (A) (A) (A) (A) (A) (A) (A) (A) (A) (A)
                 (A) (A) (A) (A) (A) (A) (A) (A) (A) (A) (A) (A)
                 (A) (A) (A) (A) (A) (A) (A) (A) (A) (A) (A) (A)
                 (A) (A) (A) (A) (A) (A) (A) (A) (A) (A) (A) (A)
                 (A) (A) (A) (A) (A) (A) (A) (A) (A) (A) (A) (A)
                 (A) (A) (A) (A) (A) (A) (A) (A) (A) (A) (A) (A)
                 (A) (A) (A) (A) (A) (A) (A) (A) (A) (A) (A) (A)
                 (A) (A) (A) (A) (A) (A) (A) (A) (A) (A) (A) (A)
                 (A) (A) (A) (A) (A) (A) (A) (A) (A) (A) (A) (A)
                 (A) (A) (A) (A)
    12 initial guesses have been made.
 Convergence on wavefunction:    0.001000000000000
 Iteration     1 Dimension    12 NMult     0 NNew     12
 CISAX will form    12 AO SS matrices at one time.
 New state      3 was old state      4
 Iteration     2 Dimension    18 NMult    12 NNew      6
 Iteration     3 Dimension    24 NMult    18 NNew      6
 Iteration     4 Dimension    30 NMult    24 NNew      6
 Iteration     5 Dimension    36 NMult    30 NNew      6
 ***********************************************************************
 Excited states from <AA,BB:AA,BB> singles matrix:
 ***********************************************************************
 
 Ground to excited state transition densities written to RWF  633
 Ground to excited state transition electric dipole moments (Au):
       state          X           Y           Z        Dip. S.      Osc.
         1         8.9145     -0.9965     -0.0001     80.4612      4.2697
         2        -0.0005      0.0001     -0.0298      0.0009      0.0001
         3         0.9704     -0.4001     -0.0002      1.1018      0.0893
 Ground to excited state transition velocity dipole moments (Au):
       state          X           Y           Z        Dip. S.      Osc.
         1        -0.7081      0.0800      0.0000      0.5078      4.2527
         2         0.0000      0.0000      0.0030      0.0000      0.0001
         3        -0.1164      0.0496      0.0000      0.0160      0.0878
 Ground to excited state transition magnetic dipole moments (Au):
       state          X           Y           Z
         1        -0.0231     -0.2875     -0.0002
         2         0.0000      0.0002     -0.3419
         3        -0.0095      0.0058     -0.0002
 Ground to excited state transition velocity quadrupole moments (Au):
       state          XX          YY          ZZ          XY          XZ          YZ
         1        -0.0008      0.0000      0.0000      0.0000      0.1448     -0.0182
         2        -3.2930     -0.0326     -0.0074      0.0549     -0.0002      0.0000
         3        -0.0060     -0.0001      0.0000      0.0003     -0.0481      0.0094
 <0|del|b> * <b|rxdel|0> + <0|del|b> * <b|delr+rdel|0>
 Rotatory Strengths (R) in cgs (10**-40 erg-esu-cm/Gauss)
       state          XX          YY          ZZ    R(velocity)    E-M Angle
         1      -153.5700    129.7250    -35.1865    -19.6772       91.85
         2        -3.0836     -4.2635      0.0000     -2.4490       90.00
         3         7.7728      0.0371      0.2960      2.7020        8.45
 1/2[<0|r|b>*<b|rxdel|0> + (<0|rxdel|b>*<b|r|0>)*]
 Rotatory Strengths (R) in cgs (10**-40 erg-esu-cm/Gauss)
       state          XX          YY          ZZ     R(length)
         1       145.5625   -202.6285      0.0000    -19.0220
         2         0.0000      0.0000     -7.2097     -2.4033
         3         6.5195      1.6431      0.0000      2.7209
  1/2[<0|del|b>*<b|r|0> + (<0|r|b>*<b|del|0>)*] (Au)
       state          X           Y           Z        Dip. S.   Osc.(frdel)
         1        -6.3121     -0.0797      0.0000      6.3918      4.2612
         2         0.0000      0.0000     -0.0001      0.0001      0.0001
         3        -0.1130     -0.0198      0.0000      0.1328      0.0885

 Excitation energies and oscillator strengths:
 
 Excited State   1:      Singlet-A      2.1660 eV  572.41 nm  f=4.2697  <S**2>=0.000
     148 -> 149        0.70793
 This state for optimization and/or second-order correction.
 Total Energy, E(TD-HF/TD-KS) =  -1556.30751555    
 Copying the excited state density for this state as the 1-particle RhoCI density.
 
 Excited State   2:      Singlet-A      2.6426 eV  469.18 nm  f=0.0001  <S**2>=0.000
     147 -> 149        0.58559
     148 -> 150       -0.38033
 
 Excited State   3:      Singlet-A      3.3088 eV  374.71 nm  f=0.0893  <S**2>=0.000
     146 -> 149        0.61396
     147 -> 150        0.10883
     148 -> 151        0.31641
 SavETr:  write IOETrn=   770 NScale= 10 NData=  16 NLR=1 NState=    3 LETran=      64.

 **********************************************************************

            Population analysis using the SCF density.

 **********************************************************************

 Orbital symmetries:
       Occupied  (A) (A) (A) (A) (A) (A) (A) (A) (A) (A) (A) (A)
                 (A) (A) (A) (A) (A) (A) (A) (A) (A) (A) (A) (A)
                 (A) (A) (A) (A) (A) (A) (A) (A) (A) (A) (A) (A)
                 (A) (A) (A) (A) (A) (A) (A) (A) (A) (A) (A) (A)
                 (A) (A) (A) (A) (A) (A) (A) (A) (A) (A) (A) (A)
                 (A) (A) (A) (A) (A) (A) (A) (A) (A) (A) (A) (A)
                 (A) (A) (A) (A) (A) (A) (A) (A) (A) (A) (A) (A)
                 (A) (A) (A) (A) (A) (A) (A) (A) (A) (A) (A) (A)
                 (A) (A) (A) (A) (A) (A) (A) (A) (A) (A) (A) (A)
                 (A) (A) (A) (A) (A) (A) (A) (A) (A) (A) (A) (A)
                 (A) (A) (A) (A) (A) (A) (A) (A) (A) (A) (A) (A)
                 (A) (A) (A) (A) (A) (A) (A) (A) (A) (A) (A) (A)
                 (A) (A) (A) (A)
       Virtual   (A) (A) (A) (A) (A) (A) (A) (A) (A) (A) (A) (A)
                 (A) (A) (A) (A) (A) (A) (A) (A) (A) (A) (A) (A)
                 (A) (A) (A) (A) (A) (A) (A) (A) (A) (A) (A) (A)
                 (A) (A) (A) (A) (A) (A) (A) (A) (A) (A) (A) (A)
                 (A) (A) (A) (A) (A) (A) (A) (A) (A) (A) (A) (A)
                 (A) (A) (A) (A) (A) (A) (A) (A) (A) (A) (A) (A)
                 (A) (A) (A) (A) (A) (A) (A) (A) (A) (A) (A) (A)
                 (A) (A) (A) (A) (A) (A) (A) (A) (A) (A) (A) (A)
                 (A) (A) (A) (A) (A) (A) (A) (A) (A) (A) (A) (A)
                 (A) (A) (A) (A) (A) (A) (A) (A) (A) (A) (A) (A)
                 (A) (A) (A) (A) (A) (A) (A) (A) (A) (A) (A) (A)
                 (A) (A) (A) (A) (A) (A) (A) (A) (A) (A) (A) (A)
                 (A) (A) (A) (A) (A) (A) (A) (A) (A) (A) (A) (A)
                 (A) (A) (A) (A) (A) (A) (A) (A) (A) (A) (A) (A)
                 (A) (A) (A) (A) (A) (A) (A) (A) (A) (A) (A) (A)
                 (A) (A) (A) (A) (A) (A) (A) (A) (A) (A) (A) (A)
                 (A) (A) (A) (A) (A) (A) (A) (A) (A) (A) (A) (A)
                 (A) (A) (A) (A) (A) (A) (A) (A) (A) (A) (A) (A)
                 (A) (A) (A) (A) (A) (A) (A) (A) (A) (A) (A) (A)
                 (A) (A) (A) (A) (A) (A) (A) (A) (A) (A) (A) (A)
                 (A) (A) (A) (A) (A) (A) (A) (A) (A) (A) (A) (A)
                 (A) (A) (A) (A) (A) (A) (A) (A) (A) (A) (A) (A)
                 (A) (A) (A) (A) (A) (A) (A) (A) (A) (A) (A) (A)
                 (A) (A) (A) (A) (A) (A) (A) (A) (A) (A) (A) (A)
                 (A) (A) (A) (A) (A) (A) (A) (A) (A) (A) (A) (A)
                 (A) (A) (A) (A) (A) (A) (A) (A) (A) (A) (A) (A)
                 (A) (A) (A) (A) (A) (A) (A) (A) (A) (A) (A) (A)
                 (A) (A) (A) (A) (A) (A) (A) (A) (A) (A) (A) (A)
                 (A) (A) (A) (A) (A) (A) (A) (A) (A) (A) (A) (A)
                 (A) (A) (A) (A) (A) (A) (A) (A) (A) (A) (A) (A)
                 (A) (A) (A) (A) (A) (A) (A) (A) (A) (A) (A) (A)
                 (A) (A) (A) (A) (A) (A) (A) (A) (A) (A) (A) (A)
                 (A) (A) (A) (A) (A) (A) (A) (A) (A) (A) (A) (A)
                 (A) (A) (A) (A) (A) (A) (A) (A) (A) (A) (A) (A)
                 (A) (A) (A) (A) (A) (A) (A) (A) (A) (A) (A) (A)
                 (A) (A) (A) (A) (A) (A) (A) (A) (A) (A) (A) (A)
                 (A) (A) (A) (A) (A) (A) (A) (A) (A) (A) (A) (A)
                 (A) (A) (A) (A) (A) (A) (A) (A) (A) (A) (A) (A)
                 (A) (A) (A) (A) (A) (A) (A) (A) (A) (A) (A) (A)
                 (A) (A) (A) (A) (A) (A) (A) (A) (A) (A) (A) (A)
                 (A) (A) (A) (A) (A) (A) (A) (A) (A) (A) (A) (A)
                 (A) (A) (A) (A) (A) (A) (A) (A) (A) (A) (A) (A)
                 (A) (A) (A) (A) (A) (A) (A) (A) (A) (A) (A) (A)
                 (A) (A) (A) (A) (A) (A) (A) (A) (A) (A) (A) (A)
                 (A) (A) (A) (A) (A) (A) (A) (A) (A) (A) (A) (A)
                 (A) (A) (A) (A) (A) (A) (A) (A) (A) (A) (A) (A)
                 (A) (A) (A) (A) (A) (A) (A) (A) (A) (A) (A) (A)
                 (A) (A) (A) (A) (A) (A) (A) (A) (A) (A) (A) (A)
                 (A) (A) (A) (A) (A) (A) (A) (A) (A) (A) (A) (A)
                 (A) (A) (A) (A) (A) (A) (A) (A) (A) (A) (A) (A)
                 (A) (A) (A) (A) (A) (A) (A) (A) (A) (A) (A) (A)
                 (A) (A) (A) (A) (A) (A) (A) (A) (A) (A) (A) (A)
                 (A) (A) (A) (A) (A) (A) (A) (A) (A) (A) (A) (A)
                 (A) (A) (A) (A) (A) (A) (A) (A) (A) (A) (A) (A)
                 (A) (A) (A) (A) (A) (A) (A) (A) (A) (A) (A) (A)
                 (A) (A) (A) (A) (A) (A) (A) (A) (A) (A) (A) (A)
                 (A) (A) (A) (A) (A) (A) (A) (A) (A) (A) (A) (A)
                 (A) (A) (A) (A) (A) (A) (A) (A) (A) (A) (A) (A)
                 (A) (A) (A) (A) (A) (A) (A) (A) (A) (A) (A) (A)
                 (A) (A) (A) (A) (A) (A) (A) (A) (A) (A) (A) (A)
                 (A) (A) (A) (A) (A) (A) (A) (A) (A) (A) (A) (A)
                 (A) (A) (A) (A) (A) (A) (A) (A) (A) (A) (A) (A)
                 (A) (A) (A) (A) (A) (A) (A) (A) (A) (A) (A) (A)
                 (A) (A) (A) (A) (A) (A) (A) (A) (A) (A) (A) (A)
                 (A) (A) (A) (A) (A) (A) (A) (A) (A) (A) (A) (A)
                 (A) (A) (A) (A) (A) (A) (A) (A) (A) (A) (A) (A)
                 (A) (A) (A) (A) (A) (A) (A) (A) (A) (A) (A) (A)
                 (A) (A) (A) (A) (A) (A) (A) (A) (A) (A) (A) (A)
                 (A) (A) (A) (A) (A) (A) (A) (A) (A) (A) (A) (A)
                 (A) (A) (A) (A) (A) (A) (A) (A) (A) (A) (A) (A)
                 (A) (A) (A) (A) (A) (A) (A) (A) (A) (A) (A) (A)
                 (A) (A) (A) (A) (A) (A) (A) (A) (A) (A) (A) (A)
                 (A) (A) (A) (A) (A) (A) (A) (A) (A) (A) (A) (A)
                 (A) (A) (A) (A) (A) (A) (A) (A) (A) (A) (A) (A)
                 (A) (A) (A) (A) (A) (A) (A) (A) (A) (A) (A) (A)
                 (A) (A) (A) (A) (A) (A) (A) (A) (A) (A) (A) (A)
                 (A) (A) (A) (A) (A) (A) (A) (A) (A) (A) (A) (A)
                 (A) (A) (A) (A) (A) (A) (A) (A) (A) (A) (A) (A)
                 (A) (A) (A) (A) (A) (A) (A) (A) (A) (A) (A) (A)
                 (A) (A) (A) (A) (A) (A) (A) (A) (A) (A) (A) (A)
                 (A) (A) (A) (A) (A) (A) (A) (A) (A) (A) (A) (A)
                 (A) (A) (A) (A) (A) (A) (A) (A) (A) (A) (A) (A)
                 (A) (A) (A) (A) (A) (A) (A) (A) (A) (A) (A) (A)
                 (A) (A) (A) (A) (A) (A) (A) (A) (A) (A) (A) (A)
                 (A) (A) (A) (A) (A) (A) (A) (A) (A) (A) (A) (A)
                 (A) (A) (A) (A) (A) (A) (A) (A) (A) (A) (A) (A)
                 (A) (A) (A) (A) (A) (A) (A) (A) (A) (A) (A) (A)
                 (A) (A) (A) (A) (A) (A) (A) (A) (A) (A) (A) (A)
                 (A) (A) (A) (A) (A) (A) (A) (A) (A) (A) (A) (A)
                 (A) (A) (A) (A) (A) (A) (A) (A) (A) (A) (A) (A)
                 (A) (A) (A) (A) (A) (A) (A) (A) (A) (A) (A) (A)
                 (A) (A) (A) (A) (A) (A) (A) (A) (A) (A) (A) (A)
                 (A) (A) (A) (A)
 The electronic state is 1-A.
 Alpha  occ. eigenvalues --  -10.23905 -10.23905 -10.23694 -10.23694 -10.23486
 Alpha  occ. eigenvalues --  -10.23486 -10.23292 -10.23291 -10.22585 -10.22537
 Alpha  occ. eigenvalues --  -10.22536 -10.22513 -10.22279 -10.22279 -10.22271
 Alpha  occ. eigenvalues --  -10.22271 -10.22159 -10.22159 -10.22104 -10.22104
 Alpha  occ. eigenvalues --  -10.21971 -10.21971 -10.21871 -10.21871 -10.21693
 Alpha  occ. eigenvalues --  -10.21693 -10.21641 -10.21641 -10.21582 -10.21581
 Alpha  occ. eigenvalues --  -10.21529 -10.21529 -10.21362 -10.21362 -10.21136
 Alpha  occ. eigenvalues --  -10.21136 -10.20292 -10.20292 -10.20157 -10.20156
 Alpha  occ. eigenvalues --   -0.87711  -0.87710  -0.86319  -0.85787  -0.84826
 Alpha  occ. eigenvalues --   -0.84202  -0.81649  -0.81153  -0.81144  -0.80260
 Alpha  occ. eigenvalues --   -0.79620  -0.78013  -0.76864  -0.74633  -0.74322
 Alpha  occ. eigenvalues --   -0.72670  -0.71090  -0.71058  -0.70537  -0.70256
 Alpha  occ. eigenvalues --   -0.70138  -0.70130  -0.69539  -0.69494  -0.68748
 Alpha  occ. eigenvalues --   -0.65614  -0.63620  -0.62224  -0.60795  -0.58879
 Alpha  occ. eigenvalues --   -0.58093  -0.58093  -0.56702  -0.56296  -0.55147
 Alpha  occ. eigenvalues --   -0.54792  -0.54127  -0.52999  -0.51898  -0.51496
 Alpha  occ. eigenvalues --   -0.50105  -0.49394  -0.48955  -0.48755  -0.48195
 Alpha  occ. eigenvalues --   -0.47732  -0.46535  -0.46236  -0.45945  -0.45757
 Alpha  occ. eigenvalues --   -0.44692  -0.44402  -0.43947  -0.43654  -0.43602
 Alpha  occ. eigenvalues --   -0.43530  -0.43230  -0.43159  -0.42966  -0.42921
 Alpha  occ. eigenvalues --   -0.42895  -0.42834  -0.41690  -0.41657  -0.41585
 Alpha  occ. eigenvalues --   -0.41432  -0.40718  -0.40189  -0.40022  -0.39889
 Alpha  occ. eigenvalues --   -0.39780  -0.39685  -0.38983  -0.38818  -0.38353
 Alpha  occ. eigenvalues --   -0.38036  -0.37950  -0.37601  -0.37372  -0.37241
 Alpha  occ. eigenvalues --   -0.36760  -0.36288  -0.36046  -0.36044  -0.35862
 Alpha  occ. eigenvalues --   -0.35668  -0.35436  -0.35246  -0.35010  -0.34801
 Alpha  occ. eigenvalues --   -0.34648  -0.34544  -0.34180  -0.33583  -0.32978
 Alpha  occ. eigenvalues --   -0.32907  -0.31870  -0.31784  -0.31473  -0.30877
 Alpha  occ. eigenvalues --   -0.30169  -0.30146  -0.28940  -0.26600  -0.24734
 Alpha  occ. eigenvalues --   -0.22294  -0.19725  -0.17151
 Alpha virt. eigenvalues --   -0.08536  -0.05027  -0.02100   0.01031   0.03519
 Alpha virt. eigenvalues --    0.04731   0.04732   0.05304   0.05452   0.05867
 Alpha virt. eigenvalues --    0.06050   0.06201   0.06283   0.06582   0.07174
 Alpha virt. eigenvalues --    0.07483   0.07674   0.07918   0.07940   0.08426
 Alpha virt. eigenvalues --    0.08809   0.08941   0.09181   0.09317   0.09586
 Alpha virt. eigenvalues --    0.09819   0.09830   0.09884   0.10198   0.10393
 Alpha virt. eigenvalues --    0.11079   0.11378   0.11423   0.12287   0.12329
 Alpha virt. eigenvalues --    0.12631   0.12846   0.13282   0.13630   0.13708
 Alpha virt. eigenvalues --    0.13967   0.14009   0.14036   0.14072   0.14243
 Alpha virt. eigenvalues --    0.14286   0.14303   0.15529   0.15659   0.15858
 Alpha virt. eigenvalues --    0.15861   0.16263   0.16320   0.16556   0.16933
 Alpha virt. eigenvalues --    0.16974   0.17697   0.17749   0.17972   0.18192
 Alpha virt. eigenvalues --    0.18297   0.18546   0.18548   0.19266   0.19284
 Alpha virt. eigenvalues --    0.19525   0.20186   0.20458   0.20460   0.21179
 Alpha virt. eigenvalues --    0.21195   0.21907   0.22252   0.22615   0.22626
 Alpha virt. eigenvalues --    0.23245   0.23537   0.23942   0.23964   0.24406
 Alpha virt. eigenvalues --    0.24482   0.25424   0.25463   0.25473   0.25791
 Alpha virt. eigenvalues --    0.26405   0.26459   0.27408   0.27728   0.28150
 Alpha virt. eigenvalues --    0.28335   0.28998   0.29427   0.29519   0.30756
 Alpha virt. eigenvalues --    0.30766   0.30876   0.30981   0.31041   0.31596
 Alpha virt. eigenvalues --    0.31809   0.32020   0.32478   0.32572   0.32928
 Alpha virt. eigenvalues --    0.33139   0.33499   0.33649   0.33859   0.33884
 Alpha virt. eigenvalues --    0.34238   0.34686   0.34784   0.35009   0.35212
 Alpha virt. eigenvalues --    0.35344   0.35588   0.36285   0.36478   0.36868
 Alpha virt. eigenvalues --    0.36877   0.37045   0.37351   0.39113   0.39151
 Alpha virt. eigenvalues --    0.39718   0.39775   0.40185   0.40333   0.40530
 Alpha virt. eigenvalues --    0.40689   0.41014   0.41194   0.41289   0.41297
 Alpha virt. eigenvalues --    0.41629   0.42001   0.42500   0.42617   0.42772
 Alpha virt. eigenvalues --    0.43183   0.43826   0.44052   0.44055   0.44476
 Alpha virt. eigenvalues --    0.44659   0.44703   0.44724   0.45274   0.45482
 Alpha virt. eigenvalues --    0.45682   0.46087   0.46093   0.46187   0.46308
 Alpha virt. eigenvalues --    0.46578   0.46632   0.46845   0.47363   0.47477
 Alpha virt. eigenvalues --    0.47545   0.47732   0.47929   0.47951   0.49012
 Alpha virt. eigenvalues --    0.49227   0.49855   0.50035   0.50534   0.50591
 Alpha virt. eigenvalues --    0.50927   0.51022   0.51113   0.51291   0.51464
 Alpha virt. eigenvalues --    0.52155   0.52484   0.52704   0.53100   0.53205
 Alpha virt. eigenvalues --    0.53607   0.53951   0.54418   0.54447   0.54535
 Alpha virt. eigenvalues --    0.54808   0.55306   0.55477   0.55660   0.55707
 Alpha virt. eigenvalues --    0.55846   0.55990   0.56058   0.56203   0.56247
 Alpha virt. eigenvalues --    0.56531   0.56572   0.56798   0.56801   0.56987
 Alpha virt. eigenvalues --    0.57106   0.57143   0.57218   0.57618   0.58180
 Alpha virt. eigenvalues --    0.58251   0.58551   0.58672   0.58846   0.58943
 Alpha virt. eigenvalues --    0.59031   0.59098   0.59539   0.59799   0.59812
 Alpha virt. eigenvalues --    0.59869   0.60114   0.60120   0.60304   0.60613
 Alpha virt. eigenvalues --    0.60700   0.60802   0.61041   0.61207   0.61271
 Alpha virt. eigenvalues --    0.61658   0.61821   0.61824   0.61965   0.62276
 Alpha virt. eigenvalues --    0.62528   0.62688   0.62921   0.63099   0.63276
 Alpha virt. eigenvalues --    0.63416   0.63666   0.63747   0.64220   0.64396
 Alpha virt. eigenvalues --    0.64539   0.64599   0.64708   0.64825   0.64868
 Alpha virt. eigenvalues --    0.65133   0.65245   0.66380   0.66517   0.66839
 Alpha virt. eigenvalues --    0.67029   0.67217   0.67352   0.67514   0.67826
 Alpha virt. eigenvalues --    0.68918   0.69504   0.69560   0.69685   0.69939
 Alpha virt. eigenvalues --    0.70411   0.70700   0.71074   0.71194   0.71614
 Alpha virt. eigenvalues --    0.71707   0.71792   0.72024   0.72839   0.72934
 Alpha virt. eigenvalues --    0.73290   0.73455   0.73900   0.74227   0.74354
 Alpha virt. eigenvalues --    0.75603   0.75710   0.75908   0.76491   0.76501
 Alpha virt. eigenvalues --    0.76849   0.76969   0.77389   0.77509   0.77661
 Alpha virt. eigenvalues --    0.78162   0.78982   0.79017   0.79305   0.79351
 Alpha virt. eigenvalues --    0.80153   0.80281   0.80771   0.80960   0.81243
 Alpha virt. eigenvalues --    0.81702   0.81714   0.81929   0.82483   0.83132
 Alpha virt. eigenvalues --    0.83590   0.83938   0.84271   0.84607   0.85047
 Alpha virt. eigenvalues --    0.85279   0.85443   0.86589   0.86980   0.87353
 Alpha virt. eigenvalues --    0.87536   0.87875   0.88278   0.88537   0.88858
 Alpha virt. eigenvalues --    0.89166   0.89184   0.89417   0.90281   0.90463
 Alpha virt. eigenvalues --    0.90492   0.91435   0.91541   0.91883   0.91903
 Alpha virt. eigenvalues --    0.92449   0.92537   0.92806   0.94120   0.94447
 Alpha virt. eigenvalues --    0.94788   0.95017   0.95066   0.95954   0.96221
 Alpha virt. eigenvalues --    0.96751   0.97129   0.97357   0.97611   0.97749
 Alpha virt. eigenvalues --    0.98759   0.98953   0.99281   1.00063   1.00353
 Alpha virt. eigenvalues --    1.00519   1.01163   1.01335   1.01621   1.01725
 Alpha virt. eigenvalues --    1.01854   1.02976   1.03621   1.03714   1.03884
 Alpha virt. eigenvalues --    1.04234   1.04532   1.04561   1.04813   1.05047
 Alpha virt. eigenvalues --    1.05149   1.05365   1.05771   1.06122   1.06340
 Alpha virt. eigenvalues --    1.06423   1.06491   1.07002   1.07835   1.08234
 Alpha virt. eigenvalues --    1.08390   1.08556   1.08940   1.09278   1.09286
 Alpha virt. eigenvalues --    1.09529   1.09559   1.10292   1.10445   1.11122
 Alpha virt. eigenvalues --    1.11613   1.11768   1.13337   1.13356   1.13658
 Alpha virt. eigenvalues --    1.14124   1.15019   1.15290   1.15631   1.15872
 Alpha virt. eigenvalues --    1.16076   1.16416   1.16526   1.17097   1.17286
 Alpha virt. eigenvalues --    1.17484   1.17942   1.18392   1.18585   1.19113
 Alpha virt. eigenvalues --    1.19225   1.19620   1.19668   1.20546   1.21022
 Alpha virt. eigenvalues --    1.21161   1.22132   1.22174   1.22745   1.22833
 Alpha virt. eigenvalues --    1.22940   1.23789   1.23894   1.24033   1.24658
 Alpha virt. eigenvalues --    1.24814   1.25121   1.25129   1.26050   1.26120
 Alpha virt. eigenvalues --    1.26249   1.26283   1.26443   1.26558   1.27598
 Alpha virt. eigenvalues --    1.27687   1.27766   1.28216   1.28440   1.28714
 Alpha virt. eigenvalues --    1.28722   1.29847   1.29906   1.30291   1.30580
 Alpha virt. eigenvalues --    1.31462   1.31716   1.32216   1.33033   1.33228
 Alpha virt. eigenvalues --    1.33401   1.33659   1.33927   1.34103   1.34432
 Alpha virt. eigenvalues --    1.35037   1.35045   1.35838   1.36008   1.36187
 Alpha virt. eigenvalues --    1.36621   1.36929   1.37562   1.37941   1.38088
 Alpha virt. eigenvalues --    1.38289   1.38563   1.39826   1.39968   1.40454
 Alpha virt. eigenvalues --    1.41216   1.41935   1.42350   1.42950   1.43111
 Alpha virt. eigenvalues --    1.44604   1.44816   1.45540   1.46369   1.46624
 Alpha virt. eigenvalues --    1.47119   1.47385   1.47480   1.47798   1.47883
 Alpha virt. eigenvalues --    1.48030   1.48317   1.49018   1.49839   1.50230
 Alpha virt. eigenvalues --    1.50965   1.51201   1.51899   1.52437   1.52808
 Alpha virt. eigenvalues --    1.53396   1.53552   1.54198   1.54439   1.55693
 Alpha virt. eigenvalues --    1.56447   1.56495   1.56624   1.56872   1.57351
 Alpha virt. eigenvalues --    1.58173   1.58216   1.59137   1.59410   1.59819
 Alpha virt. eigenvalues --    1.59994   1.61663   1.61948   1.61962   1.62757
 Alpha virt. eigenvalues --    1.62856   1.63284   1.63313   1.64178   1.64968
 Alpha virt. eigenvalues --    1.65318   1.65767   1.67362   1.67882   1.68835
 Alpha virt. eigenvalues --    1.69233   1.69983   1.70367   1.70548   1.70811
 Alpha virt. eigenvalues --    1.71197   1.71708   1.71824   1.72768   1.72773
 Alpha virt. eigenvalues --    1.73349   1.73356   1.73506   1.73735   1.75194
 Alpha virt. eigenvalues --    1.75381   1.76283   1.76500   1.76735   1.77510
 Alpha virt. eigenvalues --    1.77814   1.79101   1.79157   1.79474   1.79549
 Alpha virt. eigenvalues --    1.80065   1.80125   1.82345   1.82444   1.83534
 Alpha virt. eigenvalues --    1.83996   1.84383   1.85313   1.85331   1.87280
 Alpha virt. eigenvalues --    1.87289   1.87980   1.88566   1.88594   1.89642
 Alpha virt. eigenvalues --    1.89656   1.91141   1.91229   1.91861   1.92285
 Alpha virt. eigenvalues --    1.92607   1.92637   1.94687   1.94905   1.95296
 Alpha virt. eigenvalues --    1.95871   1.97394   1.97406   1.98608   1.99149
 Alpha virt. eigenvalues --    2.00294   2.00306   2.00839   2.01402   2.01884
 Alpha virt. eigenvalues --    2.02093   2.02784   2.02823   2.03104   2.04015
 Alpha virt. eigenvalues --    2.04186   2.04256   2.05131   2.05594   2.06769
 Alpha virt. eigenvalues --    2.07017   2.07274   2.07832   2.09225   2.09368
 Alpha virt. eigenvalues --    2.10718   2.10751   2.11794   2.13929   2.14038
 Alpha virt. eigenvalues --    2.14262   2.15219   2.15392   2.17814   2.17834
 Alpha virt. eigenvalues --    2.18666   2.18872   2.20045   2.20100   2.20480
 Alpha virt. eigenvalues --    2.20514   2.20885   2.20907   2.21048   2.21116
 Alpha virt. eigenvalues --    2.21728   2.22050   2.23886   2.23909   2.24212
 Alpha virt. eigenvalues --    2.25823   2.26061   2.26417   2.26472   2.26728
 Alpha virt. eigenvalues --    2.26759   2.26786   2.27370   2.27577   2.27799
 Alpha virt. eigenvalues --    2.28622   2.29130   2.29202   2.29527   2.29558
 Alpha virt. eigenvalues --    2.30708   2.30774   2.31504   2.31946   2.32242
 Alpha virt. eigenvalues --    2.32282   2.33291   2.33526   2.33682   2.33943
 Alpha virt. eigenvalues --    2.34044   2.34318   2.34825   2.35083   2.35278
 Alpha virt. eigenvalues --    2.35919   2.36034   2.36683   2.37045   2.37096
 Alpha virt. eigenvalues --    2.37528   2.39051   2.39661   2.40799   2.41862
 Alpha virt. eigenvalues --    2.43024   2.43354   2.43362   2.43622   2.43835
 Alpha virt. eigenvalues --    2.44674   2.46005   2.46077   2.46992   2.47096
 Alpha virt. eigenvalues --    2.47322   2.47359   2.47989   2.48818   2.49309
 Alpha virt. eigenvalues --    2.49467   2.50373   2.50392   2.51831   2.51858
 Alpha virt. eigenvalues --    2.52712   2.52722   2.52887   2.52983   2.53452
 Alpha virt. eigenvalues --    2.53713   2.55673   2.55678   2.58393   2.58496
 Alpha virt. eigenvalues --    2.58902   2.58935   2.59002   2.59477   2.61198
 Alpha virt. eigenvalues --    2.61243   2.62953   2.63013   2.65044   2.65328
 Alpha virt. eigenvalues --    2.66342   2.66400   2.66693   2.67136   2.67761
 Alpha virt. eigenvalues --    2.67887   2.69281   2.70248   2.71037   2.71139
 Alpha virt. eigenvalues --    2.71322   2.71341   2.71771   2.72034   2.72977
 Alpha virt. eigenvalues --    2.73463   2.73577   2.73674   2.74367   2.75645
 Alpha virt. eigenvalues --    2.75906   2.76077   2.76086   2.77379   2.77641
 Alpha virt. eigenvalues --    2.77998   2.78118   2.78542   2.78647   2.79164
 Alpha virt. eigenvalues --    2.80242   2.81037   2.81047   2.81789   2.81859
 Alpha virt. eigenvalues --    2.82577   2.82672   2.83275   2.84620   2.85023
 Alpha virt. eigenvalues --    2.86402   2.86412   2.87326   2.87785   2.87825
 Alpha virt. eigenvalues --    2.88368   2.89078   2.89324   2.89581   2.89877
 Alpha virt. eigenvalues --    2.90008   2.92113   2.92320   2.93083   2.93413
 Alpha virt. eigenvalues --    2.93874   2.94621   2.94770   2.95848   2.96662
 Alpha virt. eigenvalues --    2.97088   2.97593   2.98488   2.98540   2.99922
 Alpha virt. eigenvalues --    3.00047   3.00120   3.00289   3.01102   3.02372
 Alpha virt. eigenvalues --    3.02813   3.03410   3.03523   3.07123   3.07456
 Alpha virt. eigenvalues --    3.10698   3.10834   3.11312   3.11316   3.11623
 Alpha virt. eigenvalues --    3.11981   3.13347   3.13382   3.14078   3.15881
 Alpha virt. eigenvalues --    3.16472   3.16775   3.16922   3.16969   3.17264
 Alpha virt. eigenvalues --    3.17268   3.17877   3.18457   3.18603   3.19446
 Alpha virt. eigenvalues --    3.19471   3.20191   3.20561   3.20867   3.21837
 Alpha virt. eigenvalues --    3.21953   3.22198   3.22427   3.23836   3.23942
 Alpha virt. eigenvalues --    3.24697   3.25043   3.25636   3.26248   3.26952
 Alpha virt. eigenvalues --    3.27117   3.27275   3.28005   3.28155   3.28966
 Alpha virt. eigenvalues --    3.28973   3.29348   3.30032   3.30584   3.31220
 Alpha virt. eigenvalues --    3.31829   3.31877   3.32261   3.32695   3.33196
 Alpha virt. eigenvalues --    3.33346   3.33552   3.33804   3.34112   3.34176
 Alpha virt. eigenvalues --    3.34381   3.34680   3.35088   3.36170   3.36573
 Alpha virt. eigenvalues --    3.37003   3.37085   3.37835   3.37916   3.38109
 Alpha virt. eigenvalues --    3.38670   3.39507   3.39720   3.40438   3.40447
 Alpha virt. eigenvalues --    3.41228   3.41413   3.41663   3.41987   3.42596
 Alpha virt. eigenvalues --    3.42777   3.42862   3.43941   3.44566   3.44838
 Alpha virt. eigenvalues --    3.45530   3.45579   3.46505   3.46787   3.47341
 Alpha virt. eigenvalues --    3.47647   3.47833   3.48761   3.49554   3.50052
 Alpha virt. eigenvalues --    3.50307   3.50824   3.50858   3.51807   3.51821
 Alpha virt. eigenvalues --    3.51985   3.52271   3.52502   3.53334   3.53355
 Alpha virt. eigenvalues --    3.53983   3.54057   3.54472   3.54697   3.55151
 Alpha virt. eigenvalues --    3.55286   3.55512   3.55816   3.56208   3.56368
 Alpha virt. eigenvalues --    3.57216   3.57388   3.57536   3.57986   3.58025
 Alpha virt. eigenvalues --    3.58316   3.58410   3.58640   3.59662   3.59764
 Alpha virt. eigenvalues --    3.60494   3.60561   3.60622   3.61103   3.61866
 Alpha virt. eigenvalues --    3.62258   3.62280   3.62434   3.62457   3.63873
 Alpha virt. eigenvalues --    3.64027   3.64178   3.64576   3.64605   3.65140
 Alpha virt. eigenvalues --    3.65501   3.66047   3.66589   3.66603   3.67011
 Alpha virt. eigenvalues --    3.67430   3.67575   3.67598   3.67819   3.68165
 Alpha virt. eigenvalues --    3.68292   3.68477   3.68626   3.68963   3.69044
 Alpha virt. eigenvalues --    3.69173   3.69639   3.69978   3.70420   3.70821
 Alpha virt. eigenvalues --    3.71305   3.71685   3.71793   3.72662   3.72937
 Alpha virt. eigenvalues --    3.73058   3.74125   3.74219   3.74931   3.74991
 Alpha virt. eigenvalues --    3.75355   3.75491   3.75924   3.76655   3.76999
 Alpha virt. eigenvalues --    3.77096   3.77863   3.77869   3.78057   3.78375
 Alpha virt. eigenvalues --    3.78775   3.79598   3.80415   3.80568   3.81042
 Alpha virt. eigenvalues --    3.81531   3.82005   3.82149   3.82321   3.82570
 Alpha virt. eigenvalues --    3.83631   3.83950   3.84579   3.84638   3.85883
 Alpha virt. eigenvalues --    3.87255   3.88122   3.88289   3.89097   3.89121
 Alpha virt. eigenvalues --    3.89727   3.90275   3.91158   3.91181   3.91697
 Alpha virt. eigenvalues --    3.92343   3.92531   3.93418   3.94208   3.94756
 Alpha virt. eigenvalues --    3.96997   3.97825   3.98685   3.98721   4.00501
 Alpha virt. eigenvalues --    4.01195   4.01253   4.01653   4.02404   4.02497
 Alpha virt. eigenvalues --    4.03272   4.05471   4.08900   4.09624   4.10257
 Alpha virt. eigenvalues --    4.10664   4.10827   4.12520   4.14179   4.15135
 Alpha virt. eigenvalues --    4.16011   4.16854   4.17190   4.18651   4.19609
 Alpha virt. eigenvalues --    4.19910   4.21521   4.21826   4.22301   4.22420
 Alpha virt. eigenvalues --    4.22493   4.22521   4.23440   4.23465   4.24162
 Alpha virt. eigenvalues --    4.24316   4.24717   4.24735   4.25198   4.25798
 Alpha virt. eigenvalues --    4.26801   4.26871   4.27602   4.27622   4.28632
 Alpha virt. eigenvalues --    4.28652   4.29655   4.29658   4.30194   4.30203
 Alpha virt. eigenvalues --    4.32042   4.32047   4.34282   4.34294   4.36213
 Alpha virt. eigenvalues --    4.36534   4.37424   4.37820   4.39702   4.39810
 Alpha virt. eigenvalues --    4.44121   4.44126   4.49766   4.50090   4.50092
 Alpha virt. eigenvalues --    4.50699   4.50704   4.53911   4.54460   4.54800
 Alpha virt. eigenvalues --    4.55102   4.61324   4.62060   4.62073   4.64298
 Alpha virt. eigenvalues --    4.64417   4.64934   4.65239   4.66324   4.66356
 Alpha virt. eigenvalues --    4.70494   4.70508   4.75004   4.78392   4.81507
 Alpha virt. eigenvalues --    4.85685   4.89952   4.94841   5.03319   5.12239
 Alpha virt. eigenvalues --    5.22010   5.31069   5.37111  23.85067  23.85808
 Alpha virt. eigenvalues --   23.87862  23.92037  23.93083  23.94654  23.96472
 Alpha virt. eigenvalues --   23.97972  24.00052  24.00234  24.00570  24.01023
 Alpha virt. eigenvalues --   24.03297  24.03576  24.03693  24.07212  24.07366
 Alpha virt. eigenvalues --   24.09750  24.09767  24.13088  24.13181  24.14164
 Alpha virt. eigenvalues --   24.14937  24.15190  24.15452  24.16972  24.19542
 Alpha virt. eigenvalues --   24.20211  24.21462  24.21624  24.23011  24.23280
 Alpha virt. eigenvalues --   24.26141  24.27141  24.29473  24.29510  24.30440
 Alpha virt. eigenvalues --   24.30895  24.38535  24.38543
          Condensed to atoms (all electrons):
 Mulliken charges:
               1
     1  C   -0.335121
     2  C   -0.118981
     3  C   -0.167624
     4  C   -0.187364
     5  C   -0.013333
     6  C    0.148783
     7  C   -0.335347
     8  C   -0.241310
     9  C   -0.225535
    10  C   -0.077915
    11  C   -0.155694
    12  C    0.111079
    13  C   -0.127971
    14  C   -0.049096
    15  C   -0.130740
    16  C    0.082853
    17  C   -0.110707
    18  C   -0.057131
    19  C   -0.057133
    20  C   -0.110707
    21  C    0.082851
    22  C   -0.130737
    23  C   -0.049104
    24  C   -0.127971
    25  C    0.111081
    26  C   -0.155752
    27  C   -0.077787
    28  C   -0.318002
    29  C   -0.317027
    30  C   -0.317026
    31  C   -0.318006
    32  C    0.148687
    33  C   -0.335048
    34  C   -0.118964
    35  C   -0.167618
    36  C   -0.187437
    37  C   -0.013298
    38  C   -0.335283
    39  C   -0.241313
    40  C   -0.225560
    41  H    0.086334
    42  H    0.083850
    43  H    0.084382
    44  H    0.093170
    45  H    0.104685
    46  H    0.101014
    47  H    0.120994
    48  H    0.124419
    49  H    0.108276
    50  H    0.107898
    51  H    0.100557
    52  H    0.100629
    53  H    0.106081
    54  H    0.098529
    55  H    0.102145
    56  H    0.064708
    57  H    0.061574
    58  H    0.052782
    59  H    0.063703
    60  H    0.052306
    61  H    0.054284
    62  H    0.058487
    63  H    0.058488
    64  H    0.054284
    65  H    0.052305
    66  H    0.063701
    67  H    0.052780
    68  H    0.061573
    69  H    0.064693
    70  H    0.121962
    71  H    0.102036
    72  H    0.122228
    73  H    0.122511
    74  H    0.122537
    75  H    0.104099
    76  H    0.104100
    77  H    0.122509
    78  H    0.122538
    79  H    0.102037
    80  H    0.122234
    81  H    0.121956
    82  H    0.083845
    83  H    0.086330
    84  H    0.084383
    85  H    0.093171
    86  H    0.104683
    87  H    0.101008
    88  H    0.120948
    89  H    0.124381
    90  H    0.108318
    91  H    0.107906
    92  H    0.100561
    93  H    0.100622
    94  H    0.106109
    95  H    0.098528
    96  H    0.102137
 Sum of Mulliken charges =   0.00000
 Mulliken charges with hydrogens summed into heavy atoms:
               1
     1  C   -0.335121
     2  C    0.051202
     3  C    0.009928
     4  C    0.018335
     5  C   -0.013333
     6  C    0.148783
     7  C    0.018341
     8  C    0.067775
     9  C    0.081219
    10  C   -0.013207
    11  C   -0.094120
    12  C    0.111079
    13  C   -0.075189
    14  C    0.014607
    15  C   -0.078434
    16  C    0.082853
    17  C   -0.056423
    18  C    0.001356
    19  C    0.001355
    20  C   -0.056423
    21  C    0.082851
    22  C   -0.078432
    23  C    0.014598
    24  C   -0.075191
    25  C    0.111081
    26  C   -0.094179
    27  C   -0.013093
    28  C    0.028224
    29  C    0.032120
    30  C    0.032121
    31  C    0.028222
    32  C    0.148687
    33  C   -0.335048
    34  C    0.051211
    35  C    0.009936
    36  C    0.018254
    37  C   -0.013298
    38  C    0.018363
    39  C    0.067776
    40  C    0.081214
 Electronic spatial extent (au):  <R**2>=         104510.6492
 Charge=              0.0000 electrons
 Dipole moment (field-independent basis, Debye):
    X=              0.0012    Y=              0.0000    Z=             -0.3164  Tot=              0.3164
 Quadrupole moment (field-independent basis, Debye-Ang):
   XX=           -186.2523   YY=           -231.9164   ZZ=           -259.8201
   XY=            -11.0722   XZ=             -0.0001   YZ=              0.0082
 Traceless Quadrupole moment (field-independent basis, Debye-Ang):
   XX=             39.7439   YY=             -5.9201   ZZ=            -33.8238
   XY=            -11.0722   XZ=             -0.0001   YZ=              0.0082
 Octapole moment (field-independent basis, Debye-Ang**2):
  XXX=              0.3132  YYY=             -0.0030  ZZZ=             -5.3765  XYY=              0.0124
  XXY=             -0.0179  XXZ=            -58.1531  XZZ=             -0.0086  YZZ=              0.0029
  YYZ=              0.5066  XYZ=              8.2249
 Hexadecapole moment (field-independent basis, Debye-Ang**3):
 XXXX=        -124473.4744 YYYY=          -4077.3611 ZZZZ=           -824.3206 XXXY=          -1441.4017
 XXXZ=              0.7874 YYYX=           -157.9931 YYYZ=              0.0107 ZZZX=             -0.0289
 ZZZY=              0.0350 XXYY=         -23343.8662 XXZZ=         -24236.3682 YYZZ=           -834.0722
 XXYZ=              0.2113 YYXZ=             -0.0852 ZZXY=            -25.5184
 N-N= 3.637160539773D+03 E-N=-1.088206255354D+04  KE= 1.548532626732D+03
 1\1\GINC-C06B02N11\SP\RPBE1PBE TD-FC\6-311G(2d,p)\C40H56\LHLAI_PKUHPC\
 30-Oct-2020\0\\# td PBE1PBE/6-311g(2d,p)\\5\\0,1\C,0,-11.734347,-1.463
 27,0.197823\C,0,-13.19338,-1.964978,0.357528\C,0,-14.150305,-1.366251,
 -0.666975\C,0,-14.197879,0.145991,-0.470499\C,0,-12.839809,0.781151,-0
 .266473\C,0,-11.6992,0.069135,-0.020735\C,0,-12.878548,2.293672,-0.399
 781\C,0,-11.0146,-1.853889,1.513038\C,0,-11.087804,-2.2093,-0.996519\C
 ,0,-10.43465,0.808656,0.027994\C,0,-9.147712,0.368476,0.051748\C,0,-7.
 970994,1.218788,0.064208\C,0,-6.738494,0.618732,0.070151\C,0,-5.445853
 ,1.237956,0.078711\C,0,-4.280345,0.525898,0.081573\C,0,-2.942615,1.063
 559,0.08665\C,0,-1.885537,0.184962,0.08738\C,0,-0.488371,0.479787,0.08
 9053\C,0,0.488347,-0.479969,0.088801\C,0,1.885511,-0.185136,0.087475\C
 ,0,2.9426,-1.06372,0.086252\C,0,4.280317,-0.526037,0.081579\C,0,5.4458
 4,-1.238065,0.078089\C,0,6.738463,-0.618803,0.07\C,0,7.970984,-1.21881
 4,0.063575\C,0,9.147663,-0.368436,0.051849\C,0,10.434624,-0.808549,0.0
 27759\C,0,-8.156553,2.71715,0.069156\C,0,-2.769508,2.564166,0.089783\C
 ,0,2.769517,-2.564327,0.08844\C,0,8.156583,-2.717179,0.067262\C,0,11.6
 99201,-0.069059,-0.020403\C,0,11.734174,1.463486,0.197241\C,0,13.19312
 9,1.965583,0.35651\C,0,14.150188,1.366019,-0.667374\C,0,14.198042,-0.1
 4598,-0.469211\C,0,12.84001,-0.781172,-0.264991\C,0,12.879257,-2.29376
 8,-0.396971\C,0,11.014549,1.85474,1.512348\C,0,11.087391,2.208725,-0.9
 97464\H,0,-13.552321,-1.703956,1.363685\H,0,-13.192047,-3.061404,0.303
 248\H,0,-15.153264,-1.798105,-0.563126\H,0,-13.81314,-1.597981,-1.6852
 58\H,0,-14.836724,0.392993,0.394939\H,0,-14.685037,0.631223,-1.329306\
 H,0,-12.325572,2.809643,0.392261\H,0,-12.466482,2.63312,-1.360193\H,0,
 -13.913425,2.649109,-0.353524\H,0,-11.416556,-1.280703,2.356288\H,0,-1
 1.183867,-2.918184,1.719753\H,0,-9.936176,-1.690791,1.488324\H,0,-10.0
 62409,-1.885242,-1.187849\H,0,-11.067666,-3.288842,-0.800474\H,0,-11.6
 53264,-2.045445,-1.920085\H,0,-10.55322,1.886292,0.000541\H,0,-8.93161
 1,-0.694439,0.047554\H,0,-6.727213,-0.472334,0.066433\H,0,-5.394175,2.
 323265,0.081444\H,0,-4.354088,-0.562482,0.078481\H,0,-2.136452,-0.8768
 04,0.085428\H,0,-0.172475,1.521613,0.089536\H,0,0.172451,-1.521796,0.0
 88568\H,0,2.136416,0.876634,0.086232\H,0,4.354044,0.562348,0.079364\H,
 0,5.394192,-2.323379,0.079909\H,0,6.727154,0.472266,0.067137\H,0,8.931
 483,0.69446,0.048557\H,0,10.553176,-1.886154,-0.000703\H,0,-8.743395,3
 .036257,0.939921\H,0,-7.209108,3.257895,0.093049\H,0,-8.704911,3.04738
 2,-0.82252\H,0,-3.241932,3.01389,-0.792798\H,0,-3.248496,3.010862,0.97
 0351\H,0,-1.721474,2.867936,0.094306\H,0,1.721486,-2.86812,0.09284\H,0
 ,3.241891,-3.013511,-0.794442\H,0,3.248565,-3.01155,0.968706\H,0,7.209
 159,-3.257966,0.091008\H,0,8.704687,-3.046679,-0.824841\H,0,8.743681,-
 3.036978,0.937599\H,0,13.191601,3.061957,0.301212\H,0,13.552096,1.7055
 63,1.362915\H,0,15.153054,1.798199,-0.563974\H,0,13.812978,1.596575,-1
 .685912\H,0,14.836658,-0.391875,0.396706\H,0,14.685561,-0.632101,-1.32
 7317\H,0,12.323558,-2.809301,0.393398\H,0,12.470743,-2.633888,-1.35869
 \H,0,13.914032,-2.649023,-0.346838\H,0,11.416667,1.282028,2.355841\H,0
 ,11.18377,2.919158,1.718473\H,0,9.936132,1.691574,1.487888\H,0,10.0621
 38,1.88418,-1.188707\H,0,11.066849,3.288348,-0.801914\H,0,11.652983,2.
 044667,-1.920915\\Version=AM64L-G09RevD.01\State=1-A\HF=-1556.3871144\
 RMSD=4.979e-09\PG=C01 [X(C40H56)]\\@


 KINETICS       FACT
 ---------  =  -------
 MECHANISM     FICTION
 Job cpu time:       0 days  6 hours 13 minutes 49.2 seconds.
 File lengths (MBytes):  RWF=   1835 Int=      0 D2E=      0 Chk=    207 Scr=      1
 Normal termination of Gaussian 09 at Fri Oct 30 16:14:39 2020.
