 Entering Gaussian System, Link 0=/lustre1/lhlai_pkuhpc/wlzhang/MD/g09/g09
 Input=6.gjf
 Output=6.log
 Initial command:
 /lustre1/lhlai_pkuhpc/wlzhang/MD/g09/l1.exe "/lustre1/lhlai_pkuhpc/ljr/physchemlab/tddft/Gau-7602.inp" -scrdir="/lustre1/lhlai_pkuhpc/ljr/physchemlab/tddft/"
 Default is to use a total of  28 processors:
                               28 via shared-memory
                                1 via Linda
 Entering Link 1 = /lustre1/lhlai_pkuhpc/wlzhang/MD/g09/l1.exe PID=      7603.
  
 Copyright (c) 1988,1990,1992,1993,1995,1998,2003,2009,2013,
            Gaussian, Inc.  All Rights Reserved.
  
 This is part of the Gaussian(R) 09 program.  It is based on
 the Gaussian(R) 03 system (copyright 2003, Gaussian, Inc.),
 the Gaussian(R) 98 system (copyright 1998, Gaussian, Inc.),
 the Gaussian(R) 94 system (copyright 1995, Gaussian, Inc.),
 the Gaussian 92(TM) system (copyright 1992, Gaussian, Inc.),
 the Gaussian 90(TM) system (copyright 1990, Gaussian, Inc.),
 the Gaussian 88(TM) system (copyright 1988, Gaussian, Inc.),
 the Gaussian 86(TM) system (copyright 1986, Carnegie Mellon
 University), and the Gaussian 82(TM) system (copyright 1983,
 Carnegie Mellon University). Gaussian is a federally registered
 trademark of Gaussian, Inc.
  
 This software contains proprietary and confidential information,
 including trade secrets, belonging to Gaussian, Inc.
  
 This software is provided under written license and may be
 used, copied, transmitted, or stored only in accord with that
 written license.
  
 The following legend is applicable only to US Government
 contracts under FAR:
  
                    RESTRICTED RIGHTS LEGEND
  
 Use, reproduction and disclosure by the US Government is
 subject to restrictions as set forth in subparagraphs (a)
 and (c) of the Commercial Computer Software - Restricted
 Rights clause in FAR 52.227-19.
  
 Gaussian, Inc.
 340 Quinnipiac St., Bldg. 40, Wallingford CT 06492
  
  
 ---------------------------------------------------------------
 Warning -- This program may not be used in any manner that
 competes with the business of Gaussian, Inc. or will provide
 assistance to any competitor of Gaussian, Inc.  The licensee
 of this program is prohibited from giving any competitor of
 Gaussian, Inc. access to this program.  By using this program,
 the user acknowledges that Gaussian, Inc. is engaged in the
 business of creating and licensing software in the field of
 computational chemistry and represents and warrants to the
 licensee that it is not a competitor of Gaussian, Inc. and that
 it will not use this program in any manner prohibited above.
 ---------------------------------------------------------------
  

 Cite this work as:
 Gaussian 09, Revision D.01,
 M. J. Frisch, G. W. Trucks, H. B. Schlegel, G. E. Scuseria, 
 M. A. Robb, J. R. Cheeseman, G. Scalmani, V. Barone, B. Mennucci, 
 G. A. Petersson, H. Nakatsuji, M. Caricato, X. Li, H. P. Hratchian, 
 A. F. Izmaylov, J. Bloino, G. Zheng, J. L. Sonnenberg, M. Hada, 
 M. Ehara, K. Toyota, R. Fukuda, J. Hasegawa, M. Ishida, T. Nakajima, 
 Y. Honda, O. Kitao, H. Nakai, T. Vreven, J. A. Montgomery, Jr., 
 J. E. Peralta, F. Ogliaro, M. Bearpark, J. J. Heyd, E. Brothers, 
 K. N. Kudin, V. N. Staroverov, T. Keith, R. Kobayashi, J. Normand, 
 K. Raghavachari, A. Rendell, J. C. Burant, S. S. Iyengar, J. Tomasi, 
 M. Cossi, N. Rega, J. M. Millam, M. Klene, J. E. Knox, J. B. Cross, 
 V. Bakken, C. Adamo, J. Jaramillo, R. Gomperts, R. E. Stratmann, 
 O. Yazyev, A. J. Austin, R. Cammi, C. Pomelli, J. W. Ochterski, 
 R. L. Martin, K. Morokuma, V. G. Zakrzewski, G. A. Voth, 
 P. Salvador, J. J. Dannenberg, S. Dapprich, A. D. Daniels, 
 O. Farkas, J. B. Foresman, J. V. Ortiz, J. Cioslowski, 
 and D. J. Fox, Gaussian, Inc., Wallingford CT, 2013.
 
 ******************************************
 Gaussian 09:  AM64L-G09RevD.01 24-Apr-2013
                30-Oct-2020 
 ******************************************
 %nprocshared=20
 Will use up to   20 processors via shared memory.
 %mem=20GB
 -------------------------
 # td PBE1PBE/6-311g(2d,p)
 -------------------------
 1/38=1/1;
 2/12=2,17=6,18=5,40=1/2;
 3/5=4,6=6,7=102,11=9,16=1,25=1,30=1,74=-13/1,2,8,3;
 4//1;
 5/5=2,38=5/2;
 8/6=1,10=2/1;
 9/42=1,70=2/14;
 6/7=2,8=2,9=2,10=2/1;
 99/5=1,9=1/99;
 -
 6
 -
 Symbolic Z-matrix:
 Charge =  0 Multiplicity = 1
 C                     1.75078  -0.60563  0. 
 C                     2.9236    0.06916  0. 
 C                     4.23549  -0.67327   0. 
 C                     3.04976   1.57088   0. 
 C                     0.4093   -0.06063  0. 
 C                    -0.70041  -0.83629   0. 
 C                    -2.11139  -0.4218    0. 
 C                    -3.13398  -1.54958   0. 
 C                    -2.49737   0.87233   0. 
 C                    -3.90552   1.38913   0. 
 H                     1.80384  -1.69554   0. 
 H                     4.09259  -1.75842   0.00001 
 H                     4.84114  -0.40996  -0.87958 
 H                     4.84114  -0.40995   0.87958 
 H                     2.08835   2.08911  -0.00003 
 H                     3.61429   1.91213   0.8795 
 H                     3.61435   1.91213  -0.87947 
 H                     0.30383   1.02198  0. 
 H                    -0.54154  -1.91537   0. 
 H                    -2.6444   -2.52806   0. 
 H                    -3.78431  -1.51194   0.88224 
 H                    -3.7843   -1.51194  -0.88225 
 H                    -1.72842   1.64404   0. 
 H                    -4.652     0.59058  0. 
 H                    -4.09307   2.02272   0.87902 
 H                    -4.09307   2.02272  -0.87902 
 
                          Input orientation:                          
 ---------------------------------------------------------------------
 Center     Atomic      Atomic             Coordinates (Angstroms)
 Number     Number       Type             X           Y           Z
 ---------------------------------------------------------------------
      1          6           0        1.750780   -0.605632   -0.000001
      2          6           0        2.923599    0.069155   -0.000001
      3          6           0        4.235490   -0.673273    0.000000
      4          6           0        3.049762    1.570878    0.000000
      5          6           0        0.409297   -0.060626   -0.000001
      6          6           0       -0.700408   -0.836292    0.000001
      7          6           0       -2.111394   -0.421800    0.000000
      8          6           0       -3.133981   -1.549581    0.000000
      9          6           0       -2.497367    0.872331    0.000001
     10          6           0       -3.905517    1.389134    0.000000
     11          1           0        1.803844   -1.695544    0.000000
     12          1           0        4.092591   -1.758416    0.000008
     13          1           0        4.841138   -0.409963   -0.879583
     14          1           0        4.841142   -0.409952    0.879577
     15          1           0        2.088349    2.089108   -0.000031
     16          1           0        3.614289    1.912134    0.879501
     17          1           0        3.614346    1.912130   -0.879465
     18          1           0        0.303831    1.021984   -0.000003
     19          1           0       -0.541535   -1.915368    0.000003
     20          1           0       -2.644396   -2.528058    0.000003
     21          1           0       -3.784305   -1.511940    0.882244
     22          1           0       -3.784300   -1.511944   -0.882248
     23          1           0       -1.728418    1.644035    0.000001
     24          1           0       -4.651995    0.590582   -0.000002
     25          1           0       -4.093071    2.022722    0.879019
     26          1           0       -4.093069    2.022724   -0.879018
 ---------------------------------------------------------------------
                    Distance matrix (angstroms):
                    1          2          3          4          5
     1  C    0.000000
     2  C    1.353086   0.000000
     3  C    2.485631   1.507401   0.000000
     4  C    2.534670   1.507013   2.538142   0.000000
     5  C    1.447967   2.517649   3.874931   3.103846   0.000000
     6  C    2.462017   3.735406   4.938589   4.456259   1.353921
     7  C    3.866547   5.058873   6.351864   5.532477   2.546435
     8  C    4.975131   6.270134   7.421389   6.926467   3.843411
     9  C    4.497903   5.480143   6.907985   5.590940   3.052721
    10  C    5.997732   6.955514   8.398185   6.957653   4.551859
    11  H    1.091203   2.089979   2.637791   3.495973   2.148888
    12  H    2.610170   2.169460   1.094512   3.488795   4.055755
    13  H    3.219047   2.163371   1.099913   2.811837   4.531767
    14  H    3.219050   2.163371   1.099913   2.811830   4.531770
    15  H    2.715801   2.185830   3.498709   1.092189   2.727741
    16  H    3.253511   2.155724   2.800668   1.099395   3.864878
    17  H    3.253530   2.155724   2.800641   1.099394   3.864914
    18  H    2.177796   2.787663   4.281570   2.800254   1.087735
    19  H    2.640098   3.993180   4.935865   5.005130   2.084262
    20  H    4.797217   6.143947   7.125522   7.016032   3.925973
    21  H    5.677756   6.947963   8.111648   7.548946   4.524485
    22  H    5.677752   6.947960   8.111644   7.548944   4.524482
    23  H    4.143165   4.911365   6.398290   4.778740   2.734172
    24  H    6.513559   7.593518   8.976899   7.763893   5.103014
    25  H    6.467729   7.336400   8.798068   7.210888   5.038287
    26  H    6.467727   7.336398   8.798066   7.210886   5.038285
                    6          7          8          9         10
     6  C    0.000000
     7  C    1.470607   0.000000
     8  C    2.535953   1.522358   0.000000
     9  C    2.479608   1.350463   2.504184   0.000000
    10  C    3.901954   2.549188   3.038308   1.499991   0.000000
    11  H    2.647563   4.117221   4.939982   5.009431   6.489379
    12  H    4.880897   6.346335   7.229589   7.095659   8.595162
    13  H    5.627091   7.007960   8.104006   7.501440   8.972981
    14  H    5.627095   7.007964   8.104011   7.501441   8.972982
    15  H    4.041674   4.893107   6.364966   4.744401   6.034600
    16  H    5.190759   6.245336   7.635191   6.261553   7.589106
    17  H    5.190798   6.245381   7.635235   6.261603   7.589158
    18  H    2.112270   2.813863   4.293192   2.805193   4.225330
    19  H    1.090709   2.166842   2.618125   3.405370   4.715518
    20  H    2.577045   2.172651   1.094126   3.403566   4.115194
    21  H    3.277998   2.182978   1.096673   2.849440   3.034679
    22  H    3.277996   2.182977   1.096674   2.849443   3.034684
    23  H    2.684926   2.101034   3.489239   1.089408   2.191970
    24  H    4.201310   2.734880   2.623864   2.172971   1.093122
    25  H    4.522919   3.267324   3.801825   2.154610   1.099675
    26  H    4.522919   3.267324   3.801827   2.154610   1.099675
                   11         12         13         14         15
    11  H    0.000000
    12  H    2.289610   0.000000
    13  H    3.413435   1.775480   0.000000
    14  H    3.413441   1.775479   1.759160   0.000000
    15  H    3.795331   4.338252   3.820578   3.820586   0.000000
    16  H    4.131171   3.804631   3.160960   2.626262   1.770138
    17  H    4.131185   3.804615   2.626240   3.160905   1.770139
    18  H    3.104029   4.699503   4.838521   4.838522   2.079245
    19  H    2.355658   4.636783   5.658011   5.658016   4.790837
    20  H    4.525474   6.780807   7.828998   7.829004   6.611891
    21  H    5.660342   7.929980   8.872241   8.695558   6.945072
    22  H    5.660338   7.929977   8.695548   8.872241   6.945062
    23  H    4.861035   6.742464   6.939138   6.939138   3.842629
    24  H    6.848666   9.054589   9.586153   9.586156   6.904913
    25  H    7.026506   9.059510   9.425005   9.259485   6.243964
    26  H    7.026505   9.059511   9.259483   9.425004   6.243953
                   16         17         18         19         20
    16  H    0.000000
    17  H    1.758966   0.000000
    18  H    3.539071   3.539113   0.000000
    19  H    5.717881   5.717915   3.056580   0.000000
    20  H    7.723986   7.724026   4.614633   2.190300   0.000000
    21  H    8.152514   8.340738   4.889988   3.384769   1.763587
    22  H    8.340695   8.152561   4.889986   3.384766   1.763586
    23  H    5.421247   5.421297   2.125320   3.752072   4.271461
    24  H    8.417332   8.417383   4.974567   4.814111   3.708958
    25  H    7.708153   7.906249   4.594225   5.375373   4.856020
    26  H    7.906199   7.708208   4.594222   5.375374   4.856022
                   21         22         23         24         25
    21  H    0.000000
    22  H    1.764492   0.000000
    23  H    3.868488   3.868490   0.000000
    24  H    2.439640   2.439645   3.107582   0.000000
    25  H    3.548124   3.961220   2.551012   1.770903   0.000000
    26  H    3.961216   3.548130   2.551010   1.770903   1.758037
                   26
    26  H    0.000000
 Stoichiometry    C10H16
 Framework group  C1[X(C10H16)]
 Deg. of freedom    72
 Full point group                 C1      NOp   1
 Largest Abelian subgroup         C1      NOp   1
 Largest concise Abelian subgroup C1      NOp   1
                         Standard orientation:                         
 ---------------------------------------------------------------------
 Center     Atomic      Atomic             Coordinates (Angstroms)
 Number     Number       Type             X           Y           Z
 ---------------------------------------------------------------------
      1          6           0        1.750780   -0.605632   -0.000001
      2          6           0        2.923599    0.069155   -0.000001
      3          6           0        4.235490   -0.673273    0.000000
      4          6           0        3.049762    1.570878    0.000000
      5          6           0        0.409297   -0.060626   -0.000001
      6          6           0       -0.700408   -0.836292    0.000001
      7          6           0       -2.111394   -0.421800    0.000000
      8          6           0       -3.133981   -1.549581    0.000000
      9          6           0       -2.497367    0.872331    0.000001
     10          6           0       -3.905517    1.389134    0.000000
     11          1           0        1.803844   -1.695544    0.000000
     12          1           0        4.092591   -1.758416    0.000008
     13          1           0        4.841138   -0.409963   -0.879583
     14          1           0        4.841142   -0.409952    0.879577
     15          1           0        2.088349    2.089108   -0.000031
     16          1           0        3.614289    1.912134    0.879501
     17          1           0        3.614346    1.912130   -0.879465
     18          1           0        0.303831    1.021984   -0.000003
     19          1           0       -0.541535   -1.915368    0.000003
     20          1           0       -2.644396   -2.528058    0.000003
     21          1           0       -3.784305   -1.511940    0.882244
     22          1           0       -3.784300   -1.511944   -0.882248
     23          1           0       -1.728418    1.644035    0.000001
     24          1           0       -4.651995    0.590582   -0.000002
     25          1           0       -4.093071    2.022722    0.879019
     26          1           0       -4.093069    2.022724   -0.879018
 ---------------------------------------------------------------------
 Rotational constants (GHZ):      3.1070913      0.4583373      0.4033999
 Standard basis: 6-311G(2d,p) (5D, 7F)
 There are   346 symmetry adapted cartesian basis functions of A   symmetry.
 There are   326 symmetry adapted basis functions of A   symmetry.
   326 basis functions,   508 primitive gaussians,   346 cartesian basis functions
    38 alpha electrons       38 beta electrons
       nuclear repulsion energy       478.5372655195 Hartrees.
 NAtoms=   26 NActive=   26 NUniq=   26 SFac= 1.00D+00 NAtFMM=   60 NAOKFM=F Big=F
 Integral buffers will be    131072 words long.
 Regular integral format.
 Two-electron integral symmetry is turned on.
 One-electron integrals computed using PRISM.
 NBasis=   326 RedAO= T EigKep=  1.43D-04  NBF=   326
 NBsUse=   326 1.00D-06 EigRej= -1.00D+00 NBFU=   326
 ExpMin= 1.03D-01 ExpMax= 4.56D+03 ExpMxC= 6.82D+02 IAcc=1 IRadAn=         1 AccDes= 0.00D+00
 Harris functional with IExCor= 1009 and IRadAn=       1 diagonalized for initial guess.
 HarFok:  IExCor= 1009 AccDes= 0.00D+00 IRadAn=         1 IDoV= 1 UseB2=F ITyADJ=14
 ICtDFT=  3500011 ScaDFX=  1.000000  1.000000  1.000000  1.000000
 FoFCou: FMM=F IPFlag=           0 FMFlag=      100000 FMFlg1=           0
         NFxFlg=           0 DoJE=T BraDBF=F KetDBF=T FulRan=T
         wScrn=  0.000000 ICntrl=     500 IOpCl=  0 I1Cent=   200000004 NGrid=           0
         NMat0=    1 NMatS0=      1 NMatT0=    0 NMatD0=    1 NMtDS0=    0 NMtDT0=    0
 Petite list used in FoFCou.
 Keep R1 ints in memory in canonical form, NReq=1441802935.
 Requested convergence on RMS density matrix=1.00D-08 within 128 cycles.
 Requested convergence on MAX density matrix=1.00D-06.
 Requested convergence on             energy=1.00D-06.
 No special actions if energy rises.
 Integral accuracy reduced to 1.0D-05 until final iterations.
 Initial convergence to 1.0D-05 achieved.  Increase integral accuracy.
 SCF Done:  E(RPBE1PBE) =  -390.274161457     A.U. after   12 cycles
            NFock= 12  Conv=0.94D-08     -V/T= 2.0050
 DoSCS=F DFT=T ScalE2(SS,OS)=  1.000000  1.000000
 ExpMin= 1.03D-01 ExpMax= 4.56D+03 ExpMxC= 6.82D+02 IAcc=3 IRadAn=         5 AccDes= 0.00D+00
 HarFok:  IExCor=  205 AccDes= 0.00D+00 IRadAn=         5 IDoV=-2 UseB2=F ITyADJ=14
 ICtDFT= 12500011 ScaDFX=  1.000000  1.000000  1.000000  1.000000
 Range of M.O.s used for correlation:    11   326
 NBasis=   326 NAE=    38 NBE=    38 NFC=    10 NFV=     0
 NROrb=    316 NOA=    28 NOB=    28 NVA=   288 NVB=   288

 **** Warning!!: The largest alpha MO coefficient is  0.16612150D+02

 Would need an additional          1721700000 words for in-memory AO integral storage.
 Orbital symmetries:
       Occupied  (A) (A) (A) (A) (A) (A) (A) (A) (A) (A) (A) (A)
                 (A) (A) (A) (A) (A) (A) (A) (A) (A) (A) (A) (A)
                 (A) (A) (A) (A) (A) (A) (A) (A) (A) (A) (A) (A)
                 (A) (A)
       Virtual   (A) (A) (A) (A) (A) (A) (A) (A) (A) (A) (A) (A)
                 (A) (A) (A) (A) (A) (A) (A) (A) (A) (A) (A) (A)
                 (A) (A) (A) (A) (A) (A) (A) (A) (A) (A) (A) (A)
                 (A) (A) (A) (A) (A) (A) (A) (A) (A) (A) (A) (A)
                 (A) (A) (A) (A) (A) (A) (A) (A) (A) (A) (A) (A)
                 (A) (A) (A) (A) (A) (A) (A) (A) (A) (A) (A) (A)
                 (A) (A) (A) (A) (A) (A) (A) (A) (A) (A) (A) (A)
                 (A) (A) (A) (A) (A) (A) (A) (A) (A) (A) (A) (A)
                 (A) (A) (A) (A) (A) (A) (A) (A) (A) (A) (A) (A)
                 (A) (A) (A) (A) (A) (A) (A) (A) (A) (A) (A) (A)
                 (A) (A) (A) (A) (A) (A) (A) (A) (A) (A) (A) (A)
                 (A) (A) (A) (A) (A) (A) (A) (A) (A) (A) (A) (A)
                 (A) (A) (A) (A) (A) (A) (A) (A) (A) (A) (A) (A)
                 (A) (A) (A) (A) (A) (A) (A) (A) (A) (A) (A) (A)
                 (A) (A) (A) (A) (A) (A) (A) (A) (A) (A) (A) (A)
                 (A) (A) (A) (A) (A) (A) (A) (A) (A) (A) (A) (A)
                 (A) (A) (A) (A) (A) (A) (A) (A) (A) (A) (A) (A)
                 (A) (A) (A) (A) (A) (A) (A) (A) (A) (A) (A) (A)
                 (A) (A) (A) (A) (A) (A) (A) (A) (A) (A) (A) (A)
                 (A) (A) (A) (A) (A) (A) (A) (A) (A) (A) (A) (A)
                 (A) (A) (A) (A) (A) (A) (A) (A) (A) (A) (A) (A)
                 (A) (A) (A) (A) (A) (A) (A) (A) (A) (A) (A) (A)
                 (A) (A) (A) (A) (A) (A) (A) (A) (A) (A) (A) (A)
                 (A) (A) (A) (A) (A) (A) (A) (A) (A) (A) (A) (A)
    12 initial guesses have been made.
 Convergence on wavefunction:    0.001000000000000
 Iteration     1 Dimension    12 NMult     0 NNew     12
 CISAX will form    12 AO SS matrices at one time.
 New state      3 was old state      4
 Iteration     2 Dimension    18 NMult    12 NNew      6
 Iteration     3 Dimension    24 NMult    18 NNew      6
 Iteration     4 Dimension    30 NMult    24 NNew      6
 Iteration     5 Dimension    36 NMult    30 NNew      6
 ***********************************************************************
 Excited states from <AA,BB:AA,BB> singles matrix:
 ***********************************************************************
 
 Ground to excited state transition densities written to RWF  633
 Ground to excited state transition electric dipole moments (Au):
       state          X           Y           Z        Dip. S.      Osc.
         1         2.8398     -0.2224      0.0000      8.1140      0.8207
         2        -0.0267     -0.2711      0.0000      0.0742      0.0098
         3         0.0000      0.0000     -0.1192      0.0142      0.0021
 Ground to excited state transition velocity dipole moments (Au):
       state          X           Y           Z        Dip. S.      Osc.
         1        -0.4332      0.0354      0.0000      0.1889      0.8301
         2         0.0069      0.0536      0.0000      0.0029      0.0098
         3         0.0000      0.0000      0.0221      0.0005      0.0015
 Ground to excited state transition magnetic dipole moments (Au):
       state          X           Y           Z
         1         0.0000      0.0000     -1.0709
         2         0.0000      0.0000     -0.1743
         3         0.1547     -0.1069      0.0000
 Ground to excited state transition velocity quadrupole moments (Au):
       state          XX          YY          ZZ          XY          XZ          YZ
         1        -0.3732      0.1557     -0.0088     -0.5876      0.0000      0.0000
         2         0.4820      0.0438     -0.0160     -0.3291      0.0000      0.0000
         3         0.0000      0.0000      0.0000      0.0000      0.1855      0.1268
 <0|del|b> * <b|rxdel|0> + <0|del|b> * <b|delr+rdel|0>
 Rotatory Strengths (R) in cgs (10**-40 erg-esu-cm/Gauss)
       state          XX          YY          ZZ    R(velocity)    E-M Angle
         1        -0.0002     -0.0004      0.0004     -0.0001       90.00
         2        -0.0005     -0.0001      0.0000     -0.0002       90.00
         3         0.0002      0.0005      0.0001      0.0002       90.00
 1/2[<0|r|b>*<b|rxdel|0> + (<0|rxdel|b>*<b|r|0>)*]
 Rotatory Strengths (R) in cgs (10**-40 erg-esu-cm/Gauss)
       state          XX          YY          ZZ     R(length)
         1         0.0000      0.0001      0.0006      0.0003
         2         0.0000     -0.0009      0.0000     -0.0003
         3         0.0007      0.0002      0.0002      0.0004
  1/2[<0|del|b>*<b|r|0> + (<0|r|b>*<b|del|0>)*] (Au)
       state          X           Y           Z        Dip. S.   Osc.(frdel)
         1        -1.2302     -0.0079      0.0000      1.2381      0.8254
         2        -0.0002     -0.0145      0.0000      0.0147      0.0098
         3         0.0000      0.0000     -0.0026      0.0026      0.0018

 Excitation energies and oscillator strengths:
 
 Excited State   1:      Singlet-A      4.1284 eV  300.32 nm  f=0.8207  <S**2>=0.000
      38 -> 39         0.70946
      38 <- 39        -0.10132
 This state for optimization and/or second-order correction.
 Total Energy, E(TD-HF/TD-KS) =  -390.122444395    
 Copying the excited state density for this state as the 1-particle RhoCI density.
 
 Excited State   2:      Singlet-A      5.4049 eV  229.39 nm  f=0.0098  <S**2>=0.000
      37 -> 39         0.59972
      38 -> 40         0.36797
 
 Excited State   3:      Singlet-A      5.9344 eV  208.92 nm  f=0.0021  <S**2>=0.000
      38 -> 41         0.61935
      38 -> 42         0.13207
      38 -> 43         0.29934
 SavETr:  write IOETrn=   770 NScale= 10 NData=  16 NLR=1 NState=    3 LETran=      64.

 **********************************************************************

            Population analysis using the SCF density.

 **********************************************************************

 Orbital symmetries:
       Occupied  (A) (A) (A) (A) (A) (A) (A) (A) (A) (A) (A) (A)
                 (A) (A) (A) (A) (A) (A) (A) (A) (A) (A) (A) (A)
                 (A) (A) (A) (A) (A) (A) (A) (A) (A) (A) (A) (A)
                 (A) (A)
       Virtual   (A) (A) (A) (A) (A) (A) (A) (A) (A) (A) (A) (A)
                 (A) (A) (A) (A) (A) (A) (A) (A) (A) (A) (A) (A)
                 (A) (A) (A) (A) (A) (A) (A) (A) (A) (A) (A) (A)
                 (A) (A) (A) (A) (A) (A) (A) (A) (A) (A) (A) (A)
                 (A) (A) (A) (A) (A) (A) (A) (A) (A) (A) (A) (A)
                 (A) (A) (A) (A) (A) (A) (A) (A) (A) (A) (A) (A)
                 (A) (A) (A) (A) (A) (A) (A) (A) (A) (A) (A) (A)
                 (A) (A) (A) (A) (A) (A) (A) (A) (A) (A) (A) (A)
                 (A) (A) (A) (A) (A) (A) (A) (A) (A) (A) (A) (A)
                 (A) (A) (A) (A) (A) (A) (A) (A) (A) (A) (A) (A)
                 (A) (A) (A) (A) (A) (A) (A) (A) (A) (A) (A) (A)
                 (A) (A) (A) (A) (A) (A) (A) (A) (A) (A) (A) (A)
                 (A) (A) (A) (A) (A) (A) (A) (A) (A) (A) (A) (A)
                 (A) (A) (A) (A) (A) (A) (A) (A) (A) (A) (A) (A)
                 (A) (A) (A) (A) (A) (A) (A) (A) (A) (A) (A) (A)
                 (A) (A) (A) (A) (A) (A) (A) (A) (A) (A) (A) (A)
                 (A) (A) (A) (A) (A) (A) (A) (A) (A) (A) (A) (A)
                 (A) (A) (A) (A) (A) (A) (A) (A) (A) (A) (A) (A)
                 (A) (A) (A) (A) (A) (A) (A) (A) (A) (A) (A) (A)
                 (A) (A) (A) (A) (A) (A) (A) (A) (A) (A) (A) (A)
                 (A) (A) (A) (A) (A) (A) (A) (A) (A) (A) (A) (A)
                 (A) (A) (A) (A) (A) (A) (A) (A) (A) (A) (A) (A)
                 (A) (A) (A) (A) (A) (A) (A) (A) (A) (A) (A) (A)
                 (A) (A) (A) (A) (A) (A) (A) (A) (A) (A) (A) (A)
 The electronic state is 1-A.
 Alpha  occ. eigenvalues --  -10.23142 -10.22642 -10.21755 -10.21667 -10.21481
 Alpha  occ. eigenvalues --  -10.21454 -10.21346 -10.21332 -10.21233 -10.21131
 Alpha  occ. eigenvalues --   -0.84944  -0.83202  -0.78233  -0.74428  -0.71330
 Alpha  occ. eigenvalues --   -0.70008  -0.66132  -0.60231  -0.53912  -0.52389
 Alpha  occ. eigenvalues --   -0.49363  -0.47219  -0.44884  -0.44443  -0.43270
 Alpha  occ. eigenvalues --   -0.42228  -0.40949  -0.39826  -0.39568  -0.38576
 Alpha  occ. eigenvalues --   -0.38434  -0.37795  -0.36310  -0.34366  -0.33922
 Alpha  occ. eigenvalues --   -0.33193  -0.26986  -0.19966
 Alpha virt. eigenvalues --   -0.03893   0.04829   0.05569   0.06054   0.06551
 Alpha virt. eigenvalues --    0.08790   0.09822   0.10446   0.10945   0.11407
 Alpha virt. eigenvalues --    0.12852   0.12974   0.14465   0.14660   0.14793
 Alpha virt. eigenvalues --    0.16013   0.16173   0.17887   0.19679   0.21638
 Alpha virt. eigenvalues --    0.23330   0.23775   0.25691   0.28950   0.29137
 Alpha virt. eigenvalues --    0.29145   0.30528   0.31316   0.33267   0.33322
 Alpha virt. eigenvalues --    0.33828   0.33971   0.35128   0.36633   0.38398
 Alpha virt. eigenvalues --    0.39716   0.41327   0.41912   0.42005   0.42010
 Alpha virt. eigenvalues --    0.43668   0.44732   0.45468   0.46272   0.48512
 Alpha virt. eigenvalues --    0.50348   0.50808   0.52014   0.54993   0.55189
 Alpha virt. eigenvalues --    0.55432   0.55749   0.56473   0.56619   0.56875
 Alpha virt. eigenvalues --    0.57269   0.57698   0.58262   0.59472   0.59483
 Alpha virt. eigenvalues --    0.60267   0.60365   0.60972   0.61517   0.61694
 Alpha virt. eigenvalues --    0.63080   0.63415   0.65443   0.65446   0.67692
 Alpha virt. eigenvalues --    0.68224   0.68408   0.72693   0.72927   0.74495
 Alpha virt. eigenvalues --    0.74714   0.75733   0.77603   0.79027   0.79889
 Alpha virt. eigenvalues --    0.81754   0.82132   0.83641   0.85532   0.86930
 Alpha virt. eigenvalues --    0.88174   0.90298   0.90360   0.94020   0.94733
 Alpha virt. eigenvalues --    0.96853   0.98211   0.99260   0.99791   1.01520
 Alpha virt. eigenvalues --    1.02011   1.02785   1.04361   1.04418   1.04796
 Alpha virt. eigenvalues --    1.05810   1.07335   1.08633   1.09718   1.12657
 Alpha virt. eigenvalues --    1.14755   1.16944   1.18865   1.20053   1.22112
 Alpha virt. eigenvalues --    1.23183   1.24870   1.24995   1.25388   1.27437
 Alpha virt. eigenvalues --    1.28166   1.30852   1.31591   1.33104   1.36178
 Alpha virt. eigenvalues --    1.38148   1.38585   1.42424   1.47130   1.47517
 Alpha virt. eigenvalues --    1.47848   1.48777   1.50755   1.51515   1.52652
 Alpha virt. eigenvalues --    1.54603   1.57917   1.60541   1.61661   1.62469
 Alpha virt. eigenvalues --    1.69459   1.70482   1.71347   1.72941   1.75792
 Alpha virt. eigenvalues --    1.77922   1.79083   1.81838   1.83394   1.84118
 Alpha virt. eigenvalues --    1.86553   1.88401   1.92435   1.92978   1.95690
 Alpha virt. eigenvalues --    1.97277   1.99253   2.02401   2.03702   2.12996
 Alpha virt. eigenvalues --    2.15788   2.17455   2.19052   2.20745   2.21460
 Alpha virt. eigenvalues --    2.21797   2.22146   2.24099   2.25236   2.25611
 Alpha virt. eigenvalues --    2.27262   2.28562   2.30294   2.31531   2.34177
 Alpha virt. eigenvalues --    2.34772   2.34947   2.35749   2.38709   2.39394
 Alpha virt. eigenvalues --    2.43164   2.44604   2.47568   2.50959   2.53480
 Alpha virt. eigenvalues --    2.54201   2.54845   2.55532   2.57332   2.57988
 Alpha virt. eigenvalues --    2.62572   2.63271   2.66304   2.68797   2.71330
 Alpha virt. eigenvalues --    2.71638   2.73410   2.76542   2.78893   2.80558
 Alpha virt. eigenvalues --    2.84088   2.85821   2.88485   2.92751   2.93529
 Alpha virt. eigenvalues --    2.97321   2.98057   2.99027   3.04497   3.06830
 Alpha virt. eigenvalues --    3.10547   3.10899   3.14747   3.15720   3.18261
 Alpha virt. eigenvalues --    3.18996   3.19160   3.20273   3.20511   3.22973
 Alpha virt. eigenvalues --    3.27208   3.27747   3.28137   3.31026   3.33989
 Alpha virt. eigenvalues --    3.35074   3.35726   3.36532   3.39903   3.40446
 Alpha virt. eigenvalues --    3.41226   3.43613   3.44955   3.46866   3.49099
 Alpha virt. eigenvalues --    3.49300   3.49301   3.52348   3.53468   3.54524
 Alpha virt. eigenvalues --    3.54694   3.54970   3.56426   3.56695   3.60801
 Alpha virt. eigenvalues --    3.62923   3.64689   3.67924   3.68255   3.68321
 Alpha virt. eigenvalues --    3.69595   3.71532   3.71801   3.77233   3.79086
 Alpha virt. eigenvalues --    3.79404   3.80846   3.83106   3.87883   3.89406
 Alpha virt. eigenvalues --    3.92283   3.94944   3.98988   4.05018   4.08113
 Alpha virt. eigenvalues --    4.09977   4.17814   4.19334   4.20333   4.21096
 Alpha virt. eigenvalues --    4.23416   4.24903   4.28370   4.30827   4.36089
 Alpha virt. eigenvalues --    4.38874   4.47575   4.53747   4.59625   4.62873
 Alpha virt. eigenvalues --    4.79711   4.93576   5.17308  23.81801  23.86780
 Alpha virt. eigenvalues --   23.94560  24.04559  24.07812  24.14169  24.19785
 Alpha virt. eigenvalues --   24.21837  24.30724  24.38330
          Condensed to atoms (all electrons):
               1          2          3          4          5          6
     1  C    4.800342   0.625580  -0.052304  -0.042649   0.420900  -0.012900
     2  C    0.625580   4.840453   0.425064   0.410103  -0.019187  -0.005849
     3  C   -0.052304   0.425064   4.789891  -0.052030   0.002271  -0.000029
     4  C   -0.042649   0.410103  -0.052030   4.776576  -0.005577   0.000076
     5  C    0.420900  -0.019187   0.002271  -0.005577   4.803324   0.597143
     6  C   -0.012900  -0.005849  -0.000029   0.000076   0.597143   4.832737
     7  C   -0.001568   0.000080  -0.000001   0.000020  -0.019042   0.449200
     8  C   -0.000027  -0.000003   0.000000   0.000000   0.001392  -0.056815
     9  C    0.000175   0.000020   0.000000  -0.000019  -0.010381  -0.051950
    10  C   -0.000012   0.000000   0.000000   0.000000   0.000075   0.001837
    11  H    0.401731  -0.044130  -0.012722   0.007455  -0.054734   0.000149
    12  H   -0.004931  -0.028312   0.399522   0.005200   0.000190  -0.000034
    13  H   -0.001213  -0.034505   0.392630  -0.000830  -0.000136   0.000016
    14  H   -0.001213  -0.034506   0.392630  -0.000829  -0.000136   0.000016
    15  H   -0.005746  -0.025233   0.005428   0.400019   0.000325   0.000161
    16  H   -0.000706  -0.033139  -0.001486   0.394110   0.000289   0.000012
    17  H   -0.000706  -0.033139  -0.001486   0.394111   0.000289   0.000012
    18  H   -0.050361  -0.003033  -0.000232   0.001655   0.384346  -0.035425
    19  H   -0.005366   0.000553  -0.000085   0.000037  -0.053843   0.405955
    20  H   -0.000050   0.000001   0.000000   0.000000   0.000496  -0.005472
    21  H    0.000006   0.000000   0.000000   0.000000  -0.000125   0.001559
    22  H    0.000006   0.000000   0.000000   0.000000  -0.000125   0.001559
    23  H    0.000192  -0.000003  -0.000001   0.000002   0.002553  -0.013237
    24  H    0.000000   0.000000   0.000000   0.000000   0.000069  -0.000153
    25  H    0.000000   0.000000   0.000000   0.000000   0.000001   0.000070
    26  H    0.000000   0.000000   0.000000   0.000000   0.000001   0.000070
               7          8          9         10         11         12
     1  C   -0.001568  -0.000027   0.000175  -0.000012   0.401731  -0.004931
     2  C    0.000080  -0.000003   0.000020   0.000000  -0.044130  -0.028312
     3  C   -0.000001   0.000000   0.000000   0.000000  -0.012722   0.399522
     4  C    0.000020   0.000000  -0.000019   0.000000   0.007455   0.005200
     5  C   -0.019042   0.001392  -0.010381   0.000075  -0.054734   0.000190
     6  C    0.449200  -0.056815  -0.051950   0.001837   0.000149  -0.000034
     7  C    4.759309   0.376007   0.638668  -0.033230   0.000055   0.000000
     8  C    0.376007   4.828680  -0.032377  -0.006333  -0.000062   0.000000
     9  C    0.638668  -0.032377   4.880525   0.399068   0.000075   0.000000
    10  C   -0.033230  -0.006333   0.399068   4.767996   0.000000   0.000000
    11  H    0.000055  -0.000062   0.000075   0.000000   0.629281   0.006886
    12  H    0.000000   0.000000   0.000000   0.000000   0.006886   0.573752
    13  H    0.000000   0.000000   0.000000   0.000000   0.000232  -0.027205
    14  H    0.000000   0.000000   0.000000   0.000000   0.000232  -0.027205
    15  H    0.000027   0.000000  -0.000033  -0.000002  -0.000186  -0.000441
    16  H   -0.000001   0.000000  -0.000001   0.000000  -0.000319  -0.000068
    17  H   -0.000001   0.000000  -0.000001   0.000000  -0.000319  -0.000068
    18  H   -0.011068  -0.000157   0.004653  -0.000032   0.007356   0.000045
    19  H   -0.049651  -0.007872   0.006341  -0.000254   0.008443  -0.000002
    20  H   -0.027458   0.401401   0.002617   0.000491  -0.000008   0.000000
    21  H   -0.030926   0.398098  -0.003729  -0.000355   0.000001   0.000000
    22  H   -0.030926   0.398098  -0.003729  -0.000355   0.000001   0.000000
    23  H   -0.045154   0.007953   0.402259  -0.044762  -0.000001   0.000000
    24  H   -0.004680   0.005656  -0.030222   0.400230   0.000000   0.000000
    25  H   -0.001284  -0.000194  -0.033240   0.399104   0.000000   0.000000
    26  H   -0.001284  -0.000194  -0.033240   0.399104   0.000000   0.000000
              13         14         15         16         17         18
     1  C   -0.001213  -0.001213  -0.005746  -0.000706  -0.000706  -0.050361
     2  C   -0.034505  -0.034506  -0.025233  -0.033139  -0.033139  -0.003033
     3  C    0.392630   0.392630   0.005428  -0.001486  -0.001486  -0.000232
     4  C   -0.000830  -0.000829   0.400019   0.394110   0.394111   0.001655
     5  C   -0.000136  -0.000136   0.000325   0.000289   0.000289   0.384346
     6  C    0.000016   0.000016   0.000161   0.000012   0.000012  -0.035425
     7  C    0.000000   0.000000   0.000027  -0.000001  -0.000001  -0.011068
     8  C    0.000000   0.000000   0.000000   0.000000   0.000000  -0.000157
     9  C    0.000000   0.000000  -0.000033  -0.000001  -0.000001   0.004653
    10  C    0.000000   0.000000  -0.000002   0.000000   0.000000  -0.000032
    11  H    0.000232   0.000232  -0.000186  -0.000319  -0.000319   0.007356
    12  H   -0.027205  -0.027205  -0.000441  -0.000068  -0.000068   0.000045
    13  H    0.597987  -0.039630  -0.000087  -0.001373   0.005002   0.000011
    14  H   -0.039630   0.597988  -0.000087   0.005002  -0.001374   0.000011
    15  H   -0.000087  -0.000087   0.578291  -0.027851  -0.027851   0.003563
    16  H   -0.001373   0.005002  -0.027851   0.590707  -0.037206  -0.000060
    17  H    0.005002  -0.001374  -0.027851  -0.037206   0.590707  -0.000060
    18  H    0.000011   0.000011   0.003563  -0.000060  -0.000060   0.625866
    19  H    0.000003   0.000003  -0.000014   0.000002   0.000002   0.009075
    20  H    0.000000   0.000000   0.000000   0.000000   0.000000   0.000070
    21  H    0.000000   0.000000   0.000000   0.000000   0.000000  -0.000006
    22  H    0.000000   0.000000   0.000000   0.000000   0.000000  -0.000006
    23  H    0.000000   0.000000   0.000045  -0.000002  -0.000002   0.004140
    24  H    0.000000   0.000000   0.000000   0.000000   0.000000   0.000008
    25  H    0.000000   0.000000   0.000000   0.000000   0.000000  -0.000004
    26  H    0.000000   0.000000   0.000000   0.000000   0.000000  -0.000004
              19         20         21         22         23         24
     1  C   -0.005366  -0.000050   0.000006   0.000006   0.000192   0.000000
     2  C    0.000553   0.000001   0.000000   0.000000  -0.000003   0.000000
     3  C   -0.000085   0.000000   0.000000   0.000000  -0.000001   0.000000
     4  C    0.000037   0.000000   0.000000   0.000000   0.000002   0.000000
     5  C   -0.053843   0.000496  -0.000125  -0.000125   0.002553   0.000069
     6  C    0.405955  -0.005472   0.001559   0.001559  -0.013237  -0.000153
     7  C   -0.049651  -0.027458  -0.030926  -0.030926  -0.045154  -0.004680
     8  C   -0.007872   0.401401   0.398098   0.398098   0.007953   0.005656
     9  C    0.006341   0.002617  -0.003729  -0.003729   0.402259  -0.030222
    10  C   -0.000254   0.000491  -0.000355  -0.000355  -0.044762   0.400230
    11  H    0.008443  -0.000008   0.000001   0.000001  -0.000001   0.000000
    12  H   -0.000002   0.000000   0.000000   0.000000   0.000000   0.000000
    13  H    0.000003   0.000000   0.000000   0.000000   0.000000   0.000000
    14  H    0.000003   0.000000   0.000000   0.000000   0.000000   0.000000
    15  H   -0.000014   0.000000   0.000000   0.000000   0.000045   0.000000
    16  H    0.000002   0.000000   0.000000   0.000000  -0.000002   0.000000
    17  H    0.000002   0.000000   0.000000   0.000000  -0.000002   0.000000
    18  H    0.009075   0.000070  -0.000006  -0.000006   0.004140   0.000008
    19  H    0.624441   0.006223   0.000119   0.000119  -0.000081  -0.000050
    20  H    0.006223   0.568728  -0.026264  -0.026264  -0.000403  -0.000188
    21  H    0.000119  -0.026264   0.575646  -0.034953  -0.000228   0.000131
    22  H    0.000119  -0.026264  -0.034953   0.575646  -0.000228   0.000131
    23  H   -0.000081  -0.000403  -0.000228  -0.000228   0.632166   0.006870
    24  H   -0.000050  -0.000188   0.000131   0.000131   0.006870   0.574035
    25  H    0.000021  -0.000017   0.001077  -0.000453  -0.002636  -0.028433
    26  H    0.000021  -0.000017  -0.000453   0.001077  -0.002636  -0.028433
              25         26
     1  C    0.000000   0.000000
     2  C    0.000000   0.000000
     3  C    0.000000   0.000000
     4  C    0.000000   0.000000
     5  C    0.000001   0.000001
     6  C    0.000070   0.000070
     7  C   -0.001284  -0.001284
     8  C   -0.000194  -0.000194
     9  C   -0.033240  -0.033240
    10  C    0.399104   0.399104
    11  H    0.000000   0.000000
    12  H    0.000000   0.000000
    13  H    0.000000   0.000000
    14  H    0.000000   0.000000
    15  H    0.000000   0.000000
    16  H    0.000000   0.000000
    17  H    0.000000   0.000000
    18  H   -0.000004  -0.000004
    19  H    0.000021   0.000021
    20  H   -0.000017  -0.000017
    21  H    0.001077  -0.000453
    22  H   -0.000453   0.001077
    23  H   -0.002636  -0.002636
    24  H   -0.028433  -0.028433
    25  H    0.589243  -0.036258
    26  H   -0.036258   0.589243
 Mulliken charges:
               1
     1  C   -0.069182
     2  C   -0.040813
     3  C   -0.287061
     4  C   -0.287429
     5  C   -0.050379
     6  C   -0.108703
     7  C    0.032909
     8  C   -0.313250
     9  C   -0.135479
    10  C   -0.282568
    11  H    0.050584
    12  H    0.102671
    13  H    0.109099
    14  H    0.109098
    15  H    0.099671
    16  H    0.112090
    17  H    0.112089
    18  H    0.059648
    19  H    0.055859
    20  H    0.106115
    21  H    0.120404
    22  H    0.120404
    23  H    0.053192
    24  H    0.105027
    25  H    0.113002
    26  H    0.113002
 Sum of Mulliken charges =   0.00000
 Mulliken charges with hydrogens summed into heavy atoms:
               1
     1  C   -0.018598
     2  C   -0.040813
     3  C    0.033807
     4  C    0.036422
     5  C    0.009269
     6  C   -0.052844
     7  C    0.032909
     8  C    0.033673
     9  C   -0.082287
    10  C    0.048463
 Electronic spatial extent (au):  <R**2>=           2813.7610
 Charge=              0.0000 electrons
 Dipole moment (field-independent basis, Debye):
    X=              0.1220    Y=              0.3353    Z=              0.0000  Tot=              0.3568
 Quadrupole moment (field-independent basis, Debye-Ang):
   XX=            -56.3171   YY=            -59.5460   ZZ=            -66.8963
   XY=              0.5938   XZ=              0.0000   YZ=              0.0000
 Traceless Quadrupole moment (field-independent basis, Debye-Ang):
   XX=              4.6027   YY=              1.3738   ZZ=             -5.9764
   XY=              0.5938   XZ=              0.0000   YZ=              0.0000
 Octapole moment (field-independent basis, Debye-Ang**2):
  XXX=              3.4408  YYY=             -1.9187  ZZZ=              0.0000  XYY=             -1.3052
  XXY=              3.4527  XXZ=              0.0000  XZZ=              0.3986  YZZ=              2.4768
  YYZ=              0.0000  XYZ=              0.0000
 Hexadecapole moment (field-independent basis, Debye-Ang**3):
 XXXX=          -3150.1879 YYYY=           -548.1037 ZZZZ=           -100.0688 XXXY=             11.5227
 XXXZ=             -0.0004 YYYX=            -10.7508 YYYZ=             -0.0001 ZZZX=              0.0002
 ZZZY=              0.0001 XXYY=           -624.4682 XXZZ=           -553.9399 YYZZ=           -109.9625
 XXYZ=              0.0000 YYXZ=              0.0001 ZZXY=              3.6102
 N-N= 4.785372655195D+02 E-N=-1.861445036708D+03  KE= 3.883138978190D+02
 1\1\GINC-C06B03N07\SP\RPBE1PBE TD-FC\6-311G(2d,p)\C10H16\LHLAI_PKUHPC\
 30-Oct-2020\0\\# td PBE1PBE/6-311g(2d,p)\\6\\0,1\C,0,1.75078,-0.605632
 ,-0.000001\C,0,2.923599,0.069155,-0.000001\C,0,4.23549,-0.673273,0.\C,
 0,3.049762,1.570878,0.\C,0,0.409297,-0.060626,-0.000001\C,0,-0.700408,
 -0.836292,0.000001\C,0,-2.111394,-0.4218,0.\C,0,-3.133981,-1.549581,0.
 \C,0,-2.497367,0.872331,0.000001\C,0,-3.905517,1.389134,0.\H,0,1.80384
 4,-1.695544,0.\H,0,4.092591,-1.758416,0.000008\H,0,4.841138,-0.409963,
 -0.879583\H,0,4.841142,-0.409952,0.879577\H,0,2.088349,2.089108,-0.000
 031\H,0,3.614289,1.912134,0.879501\H,0,3.614346,1.91213,-0.879465\H,0,
 0.303831,1.021984,-0.000003\H,0,-0.541535,-1.915368,0.000003\H,0,-2.64
 4396,-2.528058,0.000003\H,0,-3.784305,-1.51194,0.882244\H,0,-3.7843,-1
 .511944,-0.882248\H,0,-1.728418,1.644035,0.000001\H,0,-4.651995,0.5905
 82,-0.000002\H,0,-4.093071,2.022722,0.879019\H,0,-4.093069,2.022724,-0
 .879018\\Version=AM64L-G09RevD.01\State=1-A\HF=-390.2741615\RMSD=9.402
 e-09\PG=C01 [X(C10H16)]\\@


 Make no judgements where you have no compassion.
                               -- Anne McCaffrey
 Job cpu time:       0 days  0 hours 25 minutes 33.3 seconds.
 File lengths (MBytes):  RWF=    127 Int=      0 D2E=      0 Chk=     15 Scr=      1
 Normal termination of Gaussian 09 at Fri Oct 30 15:57:43 2020.
