 Entering Link 1 = C:\G03W\l1.exe PID=      3660.
  
 Copyright (c) 1988,1990,1992,1993,1995,1998,2003, Gaussian, Inc.
                  All Rights Reserved.
  
 This is the Gaussian(R) 03 program.  It is based on the
 the Gaussian(R) 98 system (copyright 1998, Gaussian, Inc.),
 the Gaussian(R) 94 system (copyright 1995, Gaussian, Inc.),
 the Gaussian 92(TM) system (copyright 1992, Gaussian, Inc.),
 the Gaussian 90(TM) system (copyright 1990, Gaussian, Inc.),
 the Gaussian 88(TM) system (copyright 1988, Gaussian, Inc.),
 the Gaussian 86(TM) system (copyright 1986, Carnegie Mellon
 University), and the Gaussian 82(TM) system (copyright 1983,
 Carnegie Mellon University). Gaussian is a federally registered
 trademark of Gaussian, Inc.
  
 This software contains proprietary and confidential information,
 including trade secrets, belonging to Gaussian, Inc.
  
 This software is provided under written license and may be
 used, copied, transmitted, or stored only in accord with that
 written license.
  
 The following legend is applicable only to US Government
 contracts under DFARS:
  
                    RESTRICTED RIGHTS LEGEND
  
 Use, duplication or disclosure by the US Government is subject
 to restrictions as set forth in subparagraph (c)(1)(ii) of the
 Rights in Technical Data and Computer Software clause at DFARS
 252.227-7013.
  
 Gaussian, Inc.
 Carnegie Office Park, Building 6, Pittsburgh, PA 15106 USA
  
 The following legend is applicable only to US Government
 contracts under FAR:
  
                    RESTRICTED RIGHTS LEGEND
  
 Use, reproduction and disclosure by the US Government is subject
 to restrictions as set forth in subparagraph (c) of the
 Commercial Computer Software - Restricted Rights clause at FAR
 52.227-19.
  
 Gaussian, Inc.
 Carnegie Office Park, Building 6, Pittsburgh, PA 15106 USA
  
  
 ---------------------------------------------------------------
 Warning -- This program may not be used in any manner that
 competes with the business of Gaussian, Inc. or will provide
 assistance to any competitor of Gaussian, Inc.  The licensee
 of this program is prohibited from giving any competitor of
 Gaussian, Inc. access to this program.  By using this program,
 the user acknowledges that Gaussian, Inc. is engaged in the
 business of creating and licensing software in the field of
 computational chemistry and represents and warrants to the
 licensee that it is not a competitor of Gaussian, Inc. and that
 it will not use this program in any manner prohibited above.
 ---------------------------------------------------------------
  

 Cite this work as:
 Gaussian 03, Revision B.05,
 M. J. Frisch, G. W. Trucks, H. B. Schlegel, G. E. Scuseria, 
 M. A. Robb, J. R. Cheeseman, J. A. Montgomery, Jr., T. Vreven, 
 K. N. Kudin, J. C. Burant, J. M. Millam, S. S. Iyengar, J. Tomasi, 
 V. Barone, B. Mennucci, M. Cossi, G. Scalmani, N. Rega, 
 G. A. Petersson, H. Nakatsuji, M. Hada, M. Ehara, K. Toyota, 
 R. Fukuda, J. Hasegawa, M. Ishida, T. Nakajima, Y. Honda, O. Kitao, 
 H. Nakai, M. Klene, X. Li, J. E. Knox, H. P. Hratchian, J. B. Cross, 
 C. Adamo, J. Jaramillo, R. Gomperts, R. E. Stratmann, O. Yazyev, 
 A. J. Austin, R. Cammi, C. Pomelli, J. W. Ochterski, P. Y. Ayala, 
 K. Morokuma, G. A. Voth, P. Salvador, J. J. Dannenberg, 
 V. G. Zakrzewski, S. Dapprich, A. D. Daniels, M. C. Strain, 
 O. Farkas, D. K. Malick, A. D. Rabuck, K. Raghavachari, 
 J. B. Foresman, J. V. Ortiz, Q. Cui, A. G. Baboul, S. Clifford, 
 J. Cioslowski, B. B. Stefanov, G. Liu, A. Liashenko, P. Piskorz, 
 I. Komaromi, R. L. Martin, D. J. Fox, T. Keith, M. A. Al-Laham, 
 C. Y. Peng, A. Nanayakkara, M. Challacombe, P. M. W. Gill, 
 B. Johnson, W. Chen, M. W. Wong, C. Gonzalez, and J. A. Pople, 
 Gaussian, Inc., Pittsburgh PA, 2003.
 
 **********************************************
 Gaussian 03:  x86-Win32-G03RevB.05  8-Nov-2003
                  23-Sep-2020 
 **********************************************
 %chk=azulene_B3LYP6-31Gd.chk
 %mem=6MW
 %nproc=1
 Will use up to    1 processors via shared memory.
 -------------------------------------------
 # opt freq b3lyp/6-31g(d) geom=connectivity
 -------------------------------------------
 1/14=-1,18=20,26=3,38=1,57=2/1,3;
 2/9=110,17=6,18=5,40=1/2;
 3/5=1,6=6,7=1,11=2,16=1,25=1,30=1,74=-5/1,2,3;
 4//1;
 5/5=2,38=5/2;
 6/7=2,8=2,9=2,10=2,28=1/1;
 7//1,2,3,16;
 1/14=-1,18=20/3(1);
 99//99;
 2/9=110/2;
 3/5=1,6=6,7=1,11=2,16=1,25=1,30=1,74=-5/1,2,3;
 4/5=5,16=3/1;
 5/5=2,38=5/2;
 7//1,2,3,16;
 1/14=-1,18=20/3(-5);
 2/9=110/2;
 6/7=2,8=2,9=2,10=2,19=2,28=1/1;
 99/9=1/99;
 -------------------
 Title Card Required
 -------------------
 Symbolic Z-matrix:
 Charge =  0 Multiplicity = 1
 C
 C                    1    B1
 C                    2    B2       1    A1
 C                    1    B3       2    A2       3    D1       0
 C                    3    B4       2    A3       1    D2       0
 C                    4    B5       1    A4       2    D3       0
 C                    6    B6       4    A5       1    D4       0
 H                    1    B7       2    A6       3    D5       0
 H                    2    B8       1    A7       4    D6       0
 H                    3    B9       2    A8       1    D7       0
 H                    4    B10      1    A9       2    D8       0
 H                    6    B11      4    A10      1    D9       0
 C                    5    B12      3    A11      2    D10      0
 H                    13   B13      5    A12      3    D11      0
 C                    13   B14      5    A13      3    D12      0
 H                    15   B15      13   A14      5    D13      0
 C                    7    B16      6    A15      4    D14      0
 H                    17   B17      7    A16      6    D15      0
       Variables:
  B1                    1.36073                  
  B2                    1.41578                  
  B3                    1.41577                  
  B4                    1.35655                  
  B5                    1.3599                   
  B6                    1.41121                  
  B7                    1.10996                  
  B8                    1.10833                  
  B9                    1.10947                  
  B10                   1.10852                  
  B11                   1.10972                  
  B12                   1.45754                  
  B13                   1.08768                  
  B14                   1.38071                  
  B15                   1.08923                  
  B16                   1.39184                  
  B17                   1.08774                  
  A1                  128.88277                  
  A2                  129.72366                  
  A3                  128.02274                  
  A4                  129.21844                  
  A5                  128.52038                  
  A6                  116.23588                  
  A7                  116.70124                  
  A8                  115.04327                  
  A9                  114.25182                  
  A10                 117.07024                  
  A11                 125.10582                  
  A12                 123.70074                  
  A13                 108.6969                   
  A14                 126.85249                  
  A15                 125.91231                  
  A16                 126.55775                  
  D1                   -0.04236                  
  D2                    0.01448                  
  D3                    0.00537                  
  D4                    0.03555                  
  D5                  179.96668                  
  D6                  179.9772                   
  D7                 -179.97646                  
  D8                 -179.98188                  
  D9                 -179.97955                  
  D10                -179.98466                  
  D11                   0.03086                  
  D12                -179.9755                   
  D13                 180.                       
  D14                 179.97423                  
  D15                   0.01709                  
 

 GradGradGradGradGradGradGradGradGradGradGradGradGradGradGradGradGradGrad
 Berny optimization.
 Initialization pass.
                           ----------------------------
                           !    Initial Parameters    !
                           ! (Angstroms and Degrees)  !
 --------------------------                            --------------------------
 ! Name  Definition              Value          Derivative Info.                !
 --------------------------------------------------------------------------------
 ! R1    R(1,2)                  1.3607         estimate D2E/DX2                !
 ! R2    R(1,4)                  1.4158         estimate D2E/DX2                !
 ! R3    R(1,8)                  1.11           estimate D2E/DX2                !
 ! R4    R(2,3)                  1.4158         estimate D2E/DX2                !
 ! R5    R(2,9)                  1.1083         estimate D2E/DX2                !
 ! R6    R(3,5)                  1.3565         estimate D2E/DX2                !
 ! R7    R(3,10)                 1.1095         estimate D2E/DX2                !
 ! R8    R(4,6)                  1.3599         estimate D2E/DX2                !
 ! R9    R(4,11)                 1.1085         estimate D2E/DX2                !
 ! R10   R(5,7)                  1.4843         estimate D2E/DX2                !
 ! R11   R(5,13)                 1.4575         estimate D2E/DX2                !
 ! R12   R(6,7)                  1.4112         estimate D2E/DX2                !
 ! R13   R(6,12)                 1.1097         estimate D2E/DX2                !
 ! R14   R(7,17)                 1.3918         estimate D2E/DX2                !
 ! R15   R(13,14)                1.0877         estimate D2E/DX2                !
 ! R16   R(13,15)                1.3807         estimate D2E/DX2                !
 ! R17   R(15,16)                1.0892         estimate D2E/DX2                !
 ! R18   R(15,17)                1.4446         estimate D2E/DX2                !
 ! R19   R(17,18)                1.0877         estimate D2E/DX2                !
 ! A1    A(2,1,4)              129.7237         estimate D2E/DX2                !
 ! A2    A(2,1,8)              116.2359         estimate D2E/DX2                !
 ! A3    A(4,1,8)              114.0405         estimate D2E/DX2                !
 ! A4    A(1,2,3)              128.8828         estimate D2E/DX2                !
 ! A5    A(1,2,9)              116.7012         estimate D2E/DX2                !
 ! A6    A(3,2,9)              114.416          estimate D2E/DX2                !
 ! A7    A(2,3,5)              128.0227         estimate D2E/DX2                !
 ! A8    A(2,3,10)             115.0433         estimate D2E/DX2                !
 ! A9    A(5,3,10)             116.934          estimate D2E/DX2                !
 ! A10   A(1,4,6)              129.2184         estimate D2E/DX2                !
 ! A11   A(1,4,11)             114.2518         estimate D2E/DX2                !
 ! A12   A(6,4,11)             116.5297         estimate D2E/DX2                !
 ! A13   A(3,5,7)              129.1091         estimate D2E/DX2                !
 ! A14   A(3,5,13)             125.1058         estimate D2E/DX2                !
 ! A15   A(7,5,13)             105.7851         estimate D2E/DX2                !
 ! A16   A(4,6,7)              128.5204         estimate D2E/DX2                !
 ! A17   A(4,6,12)             117.0702         estimate D2E/DX2                !
 ! A18   A(7,6,12)             114.4094         estimate D2E/DX2                !
 ! A19   A(5,7,6)              126.5229         estimate D2E/DX2                !
 ! A20   A(5,7,17)             107.5648         estimate D2E/DX2                !
 ! A21   A(6,7,17)             125.9123         estimate D2E/DX2                !
 ! A22   A(5,13,14)            123.7007         estimate D2E/DX2                !
 ! A23   A(5,13,15)            108.6969         estimate D2E/DX2                !
 ! A24   A(14,13,15)           127.6024         estimate D2E/DX2                !
 ! A25   A(13,15,16)           126.8525         estimate D2E/DX2                !
 ! A26   A(13,15,17)           109.115          estimate D2E/DX2                !
 ! A27   A(16,15,17)           124.0325         estimate D2E/DX2                !
 ! A28   A(7,17,15)            108.8383         estimate D2E/DX2                !
 ! A29   A(7,17,18)            126.5577         estimate D2E/DX2                !
 ! A30   A(15,17,18)           124.604          estimate D2E/DX2                !
 ! D1    D(4,1,2,3)             -0.0424         estimate D2E/DX2                !
 ! D2    D(4,1,2,9)            179.9772         estimate D2E/DX2                !
 ! D3    D(8,1,2,3)            179.9667         estimate D2E/DX2                !
 ! D4    D(8,1,2,9)             -0.0138         estimate D2E/DX2                !
 ! D5    D(2,1,4,6)              0.0054         estimate D2E/DX2                !
 ! D6    D(2,1,4,11)          -179.9819         estimate D2E/DX2                !
 ! D7    D(8,1,4,6)            179.9965         estimate D2E/DX2                !
 ! D8    D(8,1,4,11)             0.0092         estimate D2E/DX2                !
 ! D9    D(1,2,3,5)              0.0145         estimate D2E/DX2                !
 ! D10   D(1,2,3,10)          -179.9765         estimate D2E/DX2                !
 ! D11   D(9,2,3,5)            179.9953         estimate D2E/DX2                !
 ! D12   D(9,2,3,10)             0.0044         estimate D2E/DX2                !
 ! D13   D(2,3,5,7)              0.036          estimate D2E/DX2                !
 ! D14   D(2,3,5,13)          -179.9847         estimate D2E/DX2                !
 ! D15   D(10,3,5,7)          -179.9732         estimate D2E/DX2                !
 ! D16   D(10,3,5,13)            0.0061         estimate D2E/DX2                !
 ! D17   D(1,4,6,7)              0.0355         estimate D2E/DX2                !
 ! D18   D(1,4,6,12)          -179.9796         estimate D2E/DX2                !
 ! D19   D(11,4,6,7)          -179.9775         estimate D2E/DX2                !
 ! D20   D(11,4,6,12)            0.0074         estimate D2E/DX2                !
 ! D21   D(3,5,7,6)             -0.0338         estimate D2E/DX2                !
 ! D22   D(3,5,7,17)           179.9743         estimate D2E/DX2                !
 ! D23   D(13,5,7,6)           179.9838         estimate D2E/DX2                !
 ! D24   D(13,5,7,17)           -0.0082         estimate D2E/DX2                !
 ! D25   D(3,5,13,14)            0.0309         estimate D2E/DX2                !
 ! D26   D(3,5,13,15)         -179.9755         estimate D2E/DX2                !
 ! D27   D(7,5,13,14)         -179.9858         estimate D2E/DX2                !
 ! D28   D(7,5,13,15)            0.0078         estimate D2E/DX2                !
 ! D29   D(4,6,7,5)             -0.0162         estimate D2E/DX2                !
 ! D30   D(4,6,7,17)           179.9742         estimate D2E/DX2                !
 ! D31   D(12,6,7,5)           179.9985         estimate D2E/DX2                !
 ! D32   D(12,6,7,17)           -0.011          estimate D2E/DX2                !
 ! D33   D(5,7,17,15)            0.0056         estimate D2E/DX2                !
 ! D34   D(5,7,17,18)         -179.9909         estimate D2E/DX2                !
 ! D35   D(6,7,17,15)         -179.9864         estimate D2E/DX2                !
 ! D36   D(6,7,17,18)            0.0171         estimate D2E/DX2                !
 ! D37   D(5,13,15,16)         180.0            estimate D2E/DX2                !
 ! D38   D(5,13,15,17)          -0.0046         estimate D2E/DX2                !
 ! D39   D(14,13,15,16)         -0.0067         estimate D2E/DX2                !
 ! D40   D(14,13,15,17)        179.9887         estimate D2E/DX2                !
 ! D41   D(13,15,17,7)          -0.0007         estimate D2E/DX2                !
 ! D42   D(13,15,17,18)        179.9959         estimate D2E/DX2                !
 ! D43   D(16,15,17,7)         179.9949         estimate D2E/DX2                !
 ! D44   D(16,15,17,18)         -0.0086         estimate D2E/DX2                !
 --------------------------------------------------------------------------------
 Trust Radius=3.00D-01 FncErr=1.00D-07 GrdErr=1.00D-06
 Number of steps in this run= 103 maximum allowed number of steps= 108.
 GradGradGradGradGradGradGradGradGradGradGradGradGradGradGradGradGradGrad

                          Input orientation:                          
 ---------------------------------------------------------------------
 Center     Atomic     Atomic              Coordinates (Angstroms)
 Number     Number      Type              X           Y           Z
 ---------------------------------------------------------------------
    1          6             0        0.000000    0.000000    0.000000
    2          6             0        0.000000    0.000000    1.360730
    3          6             0        1.102087    0.000000    2.249455
    4          6             0        1.088920    0.000805   -0.904799
    5          6             0        2.423360    0.000270    1.942119
    6          6             0        2.423567    0.001693   -0.643970
    7          6             0        3.074371    0.001360    0.608213
    8          1             0       -0.995615   -0.000579   -0.490678
    9          1             0       -0.990141   -0.000338    1.858746
   10          1             0        0.836699   -0.000413    3.326715
   11          1             0        0.793207    0.000906   -1.973144
   12          1             0        3.108730    0.002574   -1.516908
   13          6             0        3.509928   -0.000068    2.913612
   14          1             0        3.356692   -0.001063    3.990448
   15          6             0        4.711597    0.000920    2.233646
   16          1             0        5.709393    0.000963    2.670487
   17          6             0        4.451107    0.001813    0.812735
   18          1             0        5.220358    0.002745    0.043687
 ---------------------------------------------------------------------
                    Distance matrix (angstroms):
                    1          2          3          4          5
     1  C    0.000000
     2  C    1.360730   0.000000
     3  C    2.504924   1.415778   0.000000
     4  C    1.415771   2.513637   3.154282   0.000000
     5  C    3.105560   2.492125   1.356546   3.144149   0.000000
     6  C    2.507664   3.145235   3.180915   1.359895   2.586089
     7  C    3.133956   3.165129   2.565849   2.496241   1.484292
     8  H    1.109961   2.102133   3.450896   2.125273   4.196176
     9  H    2.106019   1.108332   2.128396   3.458277   3.414519
    10  H    3.430320   2.136624   1.109468   4.239024   2.105849
    11  H    2.126611   3.426937   4.233881   1.108516   4.241071
    12  H    3.459078   4.236155   4.267565   2.110524   3.526274
    13  C    4.561659   3.838103   2.497760   4.521232   1.457542
    14  H    5.214505   4.264129   2.848561   5.395020   2.250947
    15  C    5.214242   4.791777   3.609545   4.793081   2.306733
    16  H    6.303068   5.857699   4.626504   5.842212   3.365789
    17  C    4.524698   4.484714   3.644188   3.775477   2.321049
    18  H    5.220542   5.383934   4.671785   4.238916   3.380421
                    6          7          8          9         10
     6  C    0.000000
     7  C    1.411208   0.000000
     8  H    3.422617   4.215727   0.000000
     9  H    4.232847   4.252540   2.349430   0.000000
    10  H    4.276037   3.520999   4.234367   2.343561   0.000000
    11  H    2.103516   3.444868   2.323272   4.226549   5.300038
    12  H    1.109716   2.125399   4.230698   5.309971   5.350030
    13  C    3.719754   2.346183   5.647044   4.622052   2.704960
    14  H    4.727426   3.393998   6.246845   4.841396   2.605937
    15  C    3.676378   2.307063   6.324098   5.714050   4.026119
    16  H    4.667149   3.346090   7.412833   6.748532   4.916684
    17  C    2.496579   1.391845   5.600506   5.540878   4.402732
    18  H    2.880089   2.218998   6.238900   6.470297   5.476746
                   11         12         13         14         15
    11  H    0.000000
    12  H    2.360043   0.000000
    13  C    5.591150   4.448649   0.000000
    14  H    6.491216   5.512936   1.087685   0.000000
    15  C    5.748988   4.078706   1.380711   2.218586   0.000000
    16  H    6.762558   4.929273   2.212862   2.697685   1.089232
    17  C    4.597973   2.688720   2.302066   3.360895   1.444591
    18  H    4.864903   2.625725   3.340965   4.364652   2.248280
                   16         17         18
    16  H    0.000000
    17  C    2.243775   0.000000
    18  H    2.671935   1.087742   0.000000
 Stoichiometry    C10H8
 Framework group  C1[X(C10H8)]
 Deg. of freedom    48
 Full point group                 C1      NOp   1
 Largest Abelian subgroup         C1      NOp   1
 Largest concise Abelian subgroup C1      NOp   1
                         Standard orientation:                         
 ---------------------------------------------------------------------
 Center     Atomic     Atomic              Coordinates (Angstroms)
 Number     Number      Type              X           Y           Z
 ---------------------------------------------------------------------
    1          6             0        2.492270   -0.037614    0.000299
    2          6             0        1.900978   -1.263159   -0.000313
    3          6             0        0.522194   -1.584690   -0.000302
    4          6             0        1.904703    1.250475    0.000307
    5          6             0       -0.534264   -0.733741    0.000059
    6          6             0        0.589309    1.595517   -0.000201
    7          6             0       -0.540963    0.750536   -0.000189
    8          1             0        3.602193   -0.028319    0.000728
    9          1             0        2.576343   -2.141954   -0.000568
   10          1             0        0.293104   -2.670249   -0.000472
   11          1             0        2.635277    2.084183    0.000576
   12          1             0        0.351542    2.679462   -0.000434
   13          6             0       -1.935037   -1.136561    0.000365
   14          1             0       -2.264953   -2.173004    0.000818
   15          6             0       -2.721850   -0.001974    0.000130
   16          1             0       -3.810342    0.038167    0.000262
   17          6             0       -1.869796    1.164580   -0.000221
   18          1             0       -2.228442    2.191496   -0.000520
 ---------------------------------------------------------------------
 Rotational constants (GHZ):      2.8611931      1.2528776      0.8713328
 Standard basis: 6-31G(d) (6D, 7F)
 There are   166 symmetry adapted basis functions of A   symmetry.
 Integral buffers will be    262144 words long.
 Raffenetti 2 integral format.
 Two-electron integral symmetry is turned on.
   166 basis functions,   312 primitive gaussians,   166 cartesian basis functions
    34 alpha electrons       34 beta electrons
       nuclear repulsion energy       453.5602665914 Hartrees.
 NAtoms=   18 NActive=   18 NUniq=   18 SFac= 1.00D+00 NAtFMM=   60 Big=F
 One-electron integrals computed using PRISM.
 NBasis=   166 RedAO= T  NBF=   166
 NBsUse=   166 1.00D-06 NBFU=   166
 Harris functional with IExCor=  402 diagonalized for initial guess.
 ExpMin= 1.61D-01 ExpMax= 3.05D+03 ExpMxC= 4.57D+02 IAcc=1 IRadAn=         1 AccDes= 1.00D-06
 HarFok:  IExCor= 402 AccDes= 1.00D-06 IRadAn=         1 IDoV=1
 ScaDFX=  1.000000  1.000000  1.000000  1.000000
 Initial guess orbital symmetries:
       Occupied  (A) (A) (A) (A) (A) (A) (A) (A) (A) (A) (A) (A)
                 (A) (A) (A) (A) (A) (A) (A) (A) (A) (A) (A) (A)
                 (A) (A) (A) (A) (A) (A) (A) (A) (A) (A)
       Virtual   (A) (A) (A) (A) (A) (A) (A) (A) (A) (A) (A) (A)
                 (A) (A) (A) (A) (A) (A) (A) (A) (A) (A) (A) (A)
                 (A) (A) (A) (A) (A) (A) (A) (A) (A) (A) (A) (A)
                 (A) (A) (A) (A) (A) (A) (A) (A) (A) (A) (A) (A)
                 (A) (A) (A) (A) (A) (A) (A) (A) (A) (A) (A) (A)
                 (A) (A) (A) (A) (A) (A) (A) (A) (A) (A) (A) (A)
                 (A) (A) (A) (A) (A) (A) (A) (A) (A) (A) (A) (A)
                 (A) (A) (A) (A) (A) (A) (A) (A) (A) (A) (A) (A)
                 (A) (A) (A) (A) (A) (A) (A) (A) (A) (A) (A) (A)
                 (A) (A) (A) (A) (A) (A) (A) (A) (A) (A) (A) (A)
                 (A) (A) (A) (A) (A) (A) (A) (A) (A) (A) (A) (A)
 The electronic state of the initial guess is 1-A.
 Requested convergence on RMS density matrix=1.00D-08 within 128 cycles.
 Requested convergence on MAX density matrix=1.00D-06.
 Requested convergence on             energy=1.00D-06.
 No special actions if energy rises.
 Integral accuracy reduced to 1.0D-05 until final iterations.
 Initial convergence to 1.0D-05 achieved.  Increase integral accuracy.
 SCF Done:  E(RB+HF-LYP) =  -385.832621223     A.U. after   16 cycles
             Convg  =    0.8821D-08             -V/T =  2.0100
             S**2   =   0.0000

 **********************************************************************

            Population analysis using the SCF density.

 **********************************************************************

 Orbital symmetries:
       Occupied  (A) (A) (A) (A) (A) (A) (A) (A) (A) (A) (A) (A)
                 (A) (A) (A) (A) (A) (A) (A) (A) (A) (A) (A) (A)
                 (A) (A) (A) (A) (A) (A) (A) (A) (A) (A)
       Virtual   (A) (A) (A) (A) (A) (A) (A) (A) (A) (A) (A) (A)
                 (A) (A) (A) (A) (A) (A) (A) (A) (A) (A) (A) (A)
                 (A) (A) (A) (A) (A) (A) (A) (A) (A) (A) (A) (A)
                 (A) (A) (A) (A) (A) (A) (A) (A) (A) (A) (A) (A)
                 (A) (A) (A) (A) (A) (A) (A) (A) (A) (A) (A) (A)
                 (A) (A) (A) (A) (A) (A) (A) (A) (A) (A) (A) (A)
                 (A) (A) (A) (A) (A) (A) (A) (A) (A) (A) (A) (A)
                 (A) (A) (A) (A) (A) (A) (A) (A) (A) (A) (A) (A)
                 (A) (A) (A) (A) (A) (A) (A) (A) (A) (A) (A) (A)
                 (A) (A) (A) (A) (A) (A) (A) (A) (A) (A) (A) (A)
                 (A) (A) (A) (A) (A) (A) (A) (A) (A) (A) (A) (A)
 The electronic state is 1-A.
 Alpha  occ. eigenvalues --  -10.20937 -10.20658 -10.20609 -10.19796 -10.19628
 Alpha  occ. eigenvalues --  -10.19545 -10.19121 -10.18574 -10.17398 -10.17277
 Alpha  occ. eigenvalues --   -0.86794  -0.81995  -0.78513  -0.73463  -0.69746
 Alpha  occ. eigenvalues --   -0.64321  -0.61274  -0.54690  -0.54057  -0.50996
 Alpha  occ. eigenvalues --   -0.49109  -0.44971  -0.44771  -0.40248  -0.38983
 Alpha  occ. eigenvalues --   -0.38390  -0.37498  -0.36422  -0.35234  -0.32726
 Alpha  occ. eigenvalues --   -0.32687  -0.29864  -0.23155  -0.18904
 Alpha virt. eigenvalues --   -0.06621  -0.03369   0.07333   0.08502   0.10861
 Alpha virt. eigenvalues --    0.12849   0.13215   0.14987   0.15639   0.16444
 Alpha virt. eigenvalues --    0.17294   0.19534   0.19889   0.22255   0.27129
 Alpha virt. eigenvalues --    0.27612   0.31075   0.34031   0.36529   0.38889
 Alpha virt. eigenvalues --    0.42259   0.44552   0.45524   0.50230   0.51641
 Alpha virt. eigenvalues --    0.54281   0.55879   0.56071   0.56815   0.58242
 Alpha virt. eigenvalues --    0.60163   0.60466   0.61059   0.61848   0.62086
 Alpha virt. eigenvalues --    0.63104   0.64223   0.64972   0.66863   0.67605
 Alpha virt. eigenvalues --    0.69453   0.70098   0.74634   0.80221   0.81472
 Alpha virt. eigenvalues --    0.82720   0.83500   0.84142   0.85291   0.85548
 Alpha virt. eigenvalues --    0.85998   0.87124   0.90010   0.92575   0.96703
 Alpha virt. eigenvalues --    1.01536   1.01662   1.03364   1.03946   1.06547
 Alpha virt. eigenvalues --    1.07680   1.16422   1.17363   1.18965   1.28877
 Alpha virt. eigenvalues --    1.29155   1.29339   1.34295   1.35957   1.38713
 Alpha virt. eigenvalues --    1.39252   1.42242   1.44534   1.47198   1.47656
 Alpha virt. eigenvalues --    1.48124   1.51957   1.55909   1.59071   1.65788
 Alpha virt. eigenvalues --    1.67497   1.74151   1.78824   1.81854   1.85622
 Alpha virt. eigenvalues --    1.88926   1.89487   1.92754   1.93413   1.97276
 Alpha virt. eigenvalues --    1.99831   2.01698   2.05174   2.06191   2.10449
 Alpha virt. eigenvalues --    2.13578   2.17046   2.20181   2.21825   2.23625
 Alpha virt. eigenvalues --    2.27451   2.30987   2.34159   2.37081   2.42437
 Alpha virt. eigenvalues --    2.45221   2.46658   2.51956   2.54681   2.64300
 Alpha virt. eigenvalues --    2.67132   2.71871   2.72402   2.73906   2.74067
 Alpha virt. eigenvalues --    2.82068   2.87840   2.91842   3.03831   3.18050
 Alpha virt. eigenvalues --    3.30319   3.34071   4.04660   4.09100   4.11969
 Alpha virt. eigenvalues --    4.13464   4.16137   4.24743   4.31590   4.48520
 Alpha virt. eigenvalues --    4.63226   4.72079
          Condensed to atoms (all electrons):
              1          2          3          4          5          6
     1  C    4.861523   0.559920  -0.030096   0.495536  -0.016526  -0.031347
     2  C    0.559920   4.915247   0.440736  -0.038341   0.004435  -0.007995
     3  C   -0.030096   0.440736   5.180173  -0.004940   0.453111  -0.034633
     4  C    0.495536  -0.038341  -0.004940   4.922353  -0.010932   0.509135
     5  C   -0.016526   0.004435   0.453111  -0.010932   4.809330  -0.046795
     6  C   -0.031347  -0.007995  -0.034633   0.509135  -0.046795   5.103766
     7  C   -0.013592  -0.008787  -0.057640   0.001484   0.379723   0.428580
     8  H    0.352518  -0.041886   0.005858  -0.042152  -0.000024   0.006115
     9  H   -0.041509   0.353095  -0.040806   0.005818   0.005242  -0.000045
    10  H    0.006041  -0.047601   0.350624  -0.000040  -0.040627  -0.000309
    11  H   -0.042744   0.006277  -0.000058   0.353104   0.000004  -0.039064
    12  H    0.005859  -0.000058  -0.000355  -0.047875   0.005433   0.351224
    13  C    0.000028   0.006418  -0.092983  -0.000578   0.436792   0.016769
    14  H    0.000004   0.000074  -0.006178  -0.000003  -0.044580  -0.000142
    15  C    0.000003  -0.000212   0.007441  -0.000233  -0.029521   0.005961
    16  H    0.000000   0.000003  -0.000158   0.000003   0.004687  -0.000111
    17  C    0.000149  -0.000684   0.020660   0.007493  -0.033562  -0.098535
    18  H    0.000006  -0.000004  -0.000198   0.000105   0.005243  -0.005673
              7          8          9         10         11         12
     1  C   -0.013592   0.352518  -0.041509   0.006041  -0.042744   0.005859
     2  C   -0.008787  -0.041886   0.353095  -0.047601   0.006277  -0.000058
     3  C   -0.057640   0.005858  -0.040806   0.350624  -0.000058  -0.000355
     4  C    0.001484  -0.042152   0.005818  -0.000040   0.353104  -0.047875
     5  C    0.379723  -0.000024   0.005242  -0.040627   0.000004   0.005433
     6  C    0.428580   0.006115  -0.000045  -0.000309  -0.039064   0.351224
     7  C    4.805423  -0.000051  -0.000019   0.005282   0.004808  -0.042259
     8  H   -0.000051   0.602617  -0.009641  -0.000194  -0.008862  -0.000197
     9  H   -0.000019  -0.009641   0.605252  -0.007512  -0.000195   0.000004
    10  H    0.005282  -0.000194  -0.007512   0.599598   0.000003   0.000004
    11  H    0.004808  -0.008862  -0.000195   0.000003   0.606333  -0.008752
    12  H   -0.042259  -0.000197   0.000004   0.000004  -0.008752   0.605147
    13  C   -0.035942   0.000002  -0.000180  -0.010901   0.000002  -0.000084
    14  H    0.005491   0.000000   0.000001   0.004779   0.000000   0.000003
    15  C   -0.032327   0.000000   0.000003   0.000116   0.000003   0.000074
    16  H    0.005062   0.000000   0.000000  -0.000008   0.000000  -0.000005
    17  C    0.478710   0.000001   0.000001  -0.000062  -0.000200  -0.010514
    18  H   -0.043625   0.000000   0.000000   0.000003  -0.000003   0.004609
             13         14         15         16         17         18
     1  C    0.000028   0.000004   0.000003   0.000000   0.000149   0.000006
     2  C    0.006418   0.000074  -0.000212   0.000003  -0.000684  -0.000004
     3  C   -0.092983  -0.006178   0.007441  -0.000158   0.020660  -0.000198
     4  C   -0.000578  -0.000003  -0.000233   0.000003   0.007493   0.000105
     5  C    0.436792  -0.044580  -0.029521   0.004687  -0.033562   0.005243
     6  C    0.016769  -0.000142   0.005961  -0.000111  -0.098535  -0.005673
     7  C   -0.035942   0.005491  -0.032327   0.005062   0.478710  -0.043625
     8  H    0.000002   0.000000   0.000000   0.000000   0.000001   0.000000
     9  H   -0.000180   0.000001   0.000003   0.000000   0.000001   0.000000
    10  H   -0.010901   0.004779   0.000116  -0.000008  -0.000062   0.000003
    11  H    0.000002   0.000000   0.000003   0.000000  -0.000200  -0.000003
    12  H   -0.000084   0.000003   0.000074  -0.000005  -0.010514   0.004609
    13  C    5.111545   0.360225   0.540306  -0.041415  -0.108364   0.005426
    14  H    0.360225   0.601735  -0.046353  -0.002635   0.005049  -0.000117
    15  C    0.540306  -0.046353   4.908417   0.356639   0.476309  -0.045732
    16  H   -0.041415  -0.002635   0.356639   0.592024  -0.042122  -0.002201
    17  C   -0.108364   0.005049   0.476309  -0.042122   5.162840   0.359275
    18  H    0.005426  -0.000117  -0.045732  -0.002201   0.359275   0.600091
 Mulliken atomic charges:
              1
     1  C   -0.105773
     2  C   -0.140635
     3  C   -0.190557
     4  C   -0.149937
     5  C    0.118566
     6  C   -0.156901
     7  C    0.119681
     8  H    0.135896
     9  H    0.130490
    10  H    0.140803
    11  H    0.129347
    12  H    0.137741
    13  C   -0.187065
    14  H    0.122648
    15  C   -0.140893
    16  H    0.130238
    17  C   -0.216443
    18  H    0.122796
 Sum of Mulliken charges=   0.00000
 Atomic charges with hydrogens summed into heavy atoms:
              1
     1  C    0.030123
     2  C   -0.010146
     3  C   -0.049754
     4  C   -0.020591
     5  C    0.118566
     6  C   -0.019160
     7  C    0.119681
     8  H    0.000000
     9  H    0.000000
    10  H    0.000000
    11  H    0.000000
    12  H    0.000000
    13  C   -0.064418
    14  H    0.000000
    15  C   -0.010656
    16  H    0.000000
    17  C   -0.093648
    18  H    0.000000
 Sum of Mulliken charges=   0.00000
 Electronic spatial extent (au):  <R**2>=  1307.0640
 Charge=     0.0000 electrons
 Dipole moment (field-independent basis, Debye):
    X=     1.0521    Y=    -0.1154    Z=     0.0001  Tot=     1.0584
 Quadrupole moment (field-independent basis, Debye-Ang):
   XX=   -51.4797   YY=   -50.7062   ZZ=   -62.3747
   XY=    -0.2488   XZ=     0.0005   YZ=    -0.0004
 Traceless Quadrupole moment (field-independent basis, Debye-Ang):
   XX=     3.3738   YY=     4.1473   ZZ=    -7.5211
   XY=    -0.2488   XZ=     0.0005   YZ=    -0.0004
 Octapole moment (field-independent basis, Debye-Ang**2):
  XXX=     5.4158  YYY=    -1.0733  ZZZ=    -0.0001  XYY=     1.9642
  XXY=     0.9203  XXZ=     0.0078  XZZ=     1.0139  YZZ=    -0.0960
  YYZ=    -0.0029  XYZ=     0.0060
 Hexadecapole moment (field-independent basis, Debye-Ang**3):
 XXXX= -1067.5303 YYYY=  -512.3930 ZZZZ=   -64.8546 XXXY=    -1.7792
 XXXZ=     0.0118 YYYX=    -1.2970 YYYZ=    -0.0038 ZZZX=     0.0008
 ZZZY=     0.0001 XXYY=  -270.9426 XXZZ=  -228.5140 YYZZ=  -114.6957
 XXYZ=    -0.0004 YYXZ=    -0.0036 ZZXY=    -0.2014
 N-N= 4.535602665914D+02 E-N=-1.800061611508D+03  KE= 3.819946887011D+02
 ***** Axes restored to original set *****
 -------------------------------------------------------------------
 Center     Atomic                   Forces (Hartrees/Bohr)
 Number     Number              X              Y              Z
 -------------------------------------------------------------------
    1          6          -0.010947502    0.000003259   -0.025825276
    2          6          -0.014397769   -0.000021030    0.027938486
    3          6          -0.021461546   -0.000013203    0.012223276
    4          6          -0.025204979   -0.000003243   -0.019610292
    5          6           0.036448276   -0.000001966    0.019300893
    6          6           0.029755604    0.000010951   -0.001686540
    7          6           0.004410786    0.000009439   -0.009203108
    8          1           0.011265729    0.000014431    0.006870344
    9          1           0.010646220    0.000000096   -0.006804737
   10          1           0.004325719    0.000003409   -0.011847571
   11          1           0.004456351   -0.000000650    0.011987618
   12          1          -0.008538032   -0.000013754    0.009024098
   13          6          -0.018701490    0.000001397   -0.006230963
   14          1           0.001162638    0.000012078   -0.002616671
   15          6          -0.001336033    0.000002959   -0.017589170
   16          1          -0.003613300   -0.000001373    0.000061060
   17          6           0.005170283    0.000004099    0.013482196
   18          1          -0.003440955   -0.000006900    0.000526357
 -------------------------------------------------------------------
 Cartesian Forces:  Max     0.036448276 RMS     0.012057157

 GradGradGradGradGradGradGradGradGradGradGradGradGradGradGradGradGradGrad
 Berny optimization.
 Internal  Forces:  Max     0.022127629 RMS     0.005632475
 Search for a local minimum.
 Step number   1 out of a maximum of 103
 All quantities printed in internal units (Hartrees-Bohrs-Radians)
 Second derivative matrix not updated -- first step.
     Eigenvalues ---    0.01469   0.01668   0.01785   0.01826   0.01876
     Eigenvalues ---    0.01886   0.02047   0.02073   0.02138   0.02252
     Eigenvalues ---    0.02264   0.02275   0.02283   0.02413   0.02504
     Eigenvalues ---    0.16000   0.16000   0.16000   0.16000   0.16000
     Eigenvalues ---    0.16000   0.16000   0.16000   0.22000   0.22000
     Eigenvalues ---    0.22201   0.22930   0.24027   0.24743   0.31870
     Eigenvalues ---    0.32604   0.32630   0.32656   0.32758   0.32777
     Eigenvalues ---    0.34902   0.35075   0.35082   0.35322   0.38143
     Eigenvalues ---    0.41508   0.42113   0.43493   0.44222   0.47824
     Eigenvalues ---    0.51219   0.51690   0.533301000.000001000.00000
     Eigenvalues --- 1000.000001000.000001000.000001000.000001000.00000
     Eigenvalues --- 1000.000001000.000001000.000001000.000001000.00000
     Eigenvalues --- 1000.000001000.000001000.000001000.000001000.00000
     Eigenvalues --- 1000.000001000.000001000.000001000.000001000.00000
     Eigenvalues --- 1000.000001000.000001000.000001000.000001000.00000
     Eigenvalues --- 1000.000001000.000001000.000001000.000001000.00000
     Eigenvalues --- 1000.000001000.000001000.000001000.000001000.00000
     Eigenvalues --- 1000.000001000.000001000.000001000.000001000.00000
     Eigenvalues --- 1000.000001000.000001000.00000
 RFO step:  Lambda=-7.25008421D-03.
 Linear search not attempted -- first point.
 Iteration  1 RMS(Cart)=  0.01050571 RMS(Int)=  0.00006639
 Iteration  2 RMS(Cart)=  0.00008897 RMS(Int)=  0.00000750
 Iteration  3 RMS(Cart)=  0.00000001 RMS(Int)=  0.00000750
 Variable       Old X    -DE/DX   Delta X   Delta X   Delta X     New X
                                 (Linear)    (Quad)   (Total)
    R1        2.57141   0.02032   0.00000   0.03844   0.03844   2.60985
    R2        2.67542   0.00132   0.00000   0.00343   0.00343   2.67885
    R3        2.09752  -0.01314   0.00000  -0.03943  -0.03943   2.05809
    R4        2.67543   0.00172   0.00000   0.00421   0.00422   2.67965
    R5        2.09444  -0.01257   0.00000  -0.03752  -0.03752   2.05693
    R6        2.56350   0.01974   0.00000   0.03614   0.03614   2.59964
    R7        2.09659  -0.01254   0.00000  -0.03756  -0.03756   2.05903
    R8        2.56983   0.02213   0.00000   0.04119   0.04118   2.61101
    R9        2.09479  -0.01274   0.00000  -0.03806  -0.03806   2.05674
   R10        2.80490   0.00671   0.00000   0.01921   0.01919   2.82409
   R11        2.75436  -0.02123   0.00000  -0.05599  -0.05598   2.69837
   R12        2.66680  -0.00091   0.00000  -0.00251  -0.00252   2.66428
   R13        2.09706  -0.01237   0.00000  -0.03709  -0.03709   2.05997
   R14        2.63021  -0.00388   0.00000  -0.00778  -0.00779   2.62241
   R15        2.05543  -0.00275   0.00000  -0.00769  -0.00769   2.04773
   R16        2.60917   0.00283   0.00000   0.00521   0.00524   2.61440
   R17        2.05835  -0.00329   0.00000  -0.00922  -0.00922   2.04913
   R18        2.72988  -0.01405   0.00000  -0.03568  -0.03567   2.69421
   R19        2.05553  -0.00281   0.00000  -0.00784  -0.00784   2.04770
    A1        2.26411  -0.00020   0.00000   0.00122   0.00122   2.26533
    A2        2.02870  -0.00114   0.00000  -0.00803  -0.00803   2.02067
    A3        1.99038   0.00134   0.00000   0.00681   0.00680   1.99719
    A4        2.24943  -0.00181   0.00000  -0.00612  -0.00612   2.24331
    A5        2.03682  -0.00045   0.00000  -0.00505  -0.00505   2.03177
    A6        1.99694   0.00226   0.00000   0.01117   0.01117   2.00810
    A7        2.23442   0.00257   0.00000   0.01144   0.01144   2.24586
    A8        2.00788   0.00015   0.00000   0.00285   0.00285   2.01073
    A9        2.04088  -0.00272   0.00000  -0.01428  -0.01428   2.02660
   A10        2.25529  -0.00148   0.00000  -0.00576  -0.00577   2.24952
   A11        1.99407   0.00189   0.00000   0.00975   0.00975   2.00382
   A12        2.03383  -0.00041   0.00000  -0.00399  -0.00398   2.02984
   A13        2.25338  -0.00252   0.00000  -0.01144  -0.01143   2.24195
   A14        2.18351   0.00083   0.00000   0.00382   0.00383   2.18733
   A15        1.84630   0.00169   0.00000   0.00762   0.00761   1.85390
   A16        2.24310   0.00199   0.00000   0.00761   0.00760   2.25071
   A17        2.04326  -0.00220   0.00000  -0.01098  -0.01098   2.03228
   A18        1.99682   0.00020   0.00000   0.00337   0.00338   2.00020
   A19        2.20824   0.00145   0.00000   0.00305   0.00305   2.21129
   A20        1.87736  -0.00269   0.00000  -0.00836  -0.00839   1.86897
   A21        2.19758   0.00124   0.00000   0.00531   0.00534   2.20292
   A22        2.15899   0.00148   0.00000   0.00857   0.00856   2.16755
   A23        1.89712  -0.00135   0.00000  -0.00753  -0.00751   1.88961
   A24        2.22708  -0.00013   0.00000  -0.00104  -0.00106   2.22603
   A25        2.21399  -0.00353   0.00000  -0.01706  -0.01707   2.19692
   A26        1.90442   0.00397   0.00000   0.01560   0.01563   1.92004
   A27        2.16478  -0.00044   0.00000   0.00146   0.00144   2.16622
   A28        1.89959  -0.00163   0.00000  -0.00733  -0.00734   1.89225
   A29        2.20885  -0.00131   0.00000  -0.00900  -0.00899   2.19986
   A30        2.17475   0.00293   0.00000   0.01633   0.01633   2.19108
    D1       -0.00074   0.00001   0.00000   0.00035   0.00035  -0.00039
    D2        3.14119   0.00001   0.00000   0.00015   0.00015   3.14135
    D3        3.14101   0.00001   0.00000   0.00029   0.00028   3.14130
    D4       -0.00024   0.00000   0.00000   0.00009   0.00009  -0.00015
    D5        0.00009   0.00000   0.00000  -0.00006  -0.00006   0.00003
    D6       -3.14128   0.00000   0.00000  -0.00017  -0.00017  -3.14145
    D7        3.14153   0.00000   0.00000   0.00000   0.00000   3.14153
    D8        0.00016   0.00000   0.00000  -0.00011  -0.00011   0.00006
    D9        0.00025   0.00000   0.00000  -0.00012  -0.00012   0.00013
   D10       -3.14118  -0.00001   0.00000  -0.00023  -0.00023  -3.14141
   D11        3.14151   0.00000   0.00000   0.00007   0.00007   3.14158
   D12        0.00008   0.00000   0.00000  -0.00004  -0.00004   0.00004
   D13        0.00063  -0.00001   0.00000  -0.00026  -0.00026   0.00037
   D14       -3.14132  -0.00001   0.00000  -0.00024  -0.00024  -3.14156
   D15       -3.14112   0.00000   0.00000  -0.00015  -0.00015  -3.14127
   D16        0.00011   0.00000   0.00000  -0.00013  -0.00013  -0.00002
   D17        0.00062  -0.00001   0.00000  -0.00029  -0.00029   0.00033
   D18       -3.14124   0.00000   0.00000  -0.00013  -0.00014  -3.14137
   D19       -3.14120  -0.00001   0.00000  -0.00018  -0.00018  -3.14138
   D20        0.00013   0.00000   0.00000  -0.00002  -0.00002   0.00011
   D21       -0.00059   0.00001   0.00000   0.00021   0.00021  -0.00038
   D22        3.14114   0.00001   0.00000   0.00021   0.00021   3.14136
   D23        3.14131   0.00000   0.00000   0.00019   0.00019   3.14150
   D24       -0.00014   0.00000   0.00000   0.00019   0.00020   0.00005
   D25        0.00054  -0.00001   0.00000  -0.00023  -0.00023   0.00031
   D26       -3.14117  -0.00001   0.00000  -0.00026  -0.00025  -3.14142
   D27       -3.14135  -0.00001   0.00000  -0.00022  -0.00021  -3.14156
   D28        0.00014  -0.00001   0.00000  -0.00024  -0.00024  -0.00010
   D29       -0.00028   0.00001   0.00000   0.00018   0.00018  -0.00010
   D30        3.14114   0.00001   0.00000   0.00018   0.00018   3.14132
   D31        3.14157   0.00000   0.00000   0.00003   0.00003  -3.14159
   D32       -0.00019   0.00000   0.00000   0.00003   0.00003  -0.00016
   D33        0.00010   0.00000   0.00000  -0.00008  -0.00008   0.00002
   D34       -3.14143   0.00000   0.00000  -0.00012  -0.00012  -3.14155
   D35       -3.14136   0.00000   0.00000  -0.00008  -0.00008  -3.14144
   D36        0.00030   0.00000   0.00000  -0.00012  -0.00012   0.00018
   D37        3.14159   0.00000   0.00000   0.00006   0.00006  -3.14153
   D38       -0.00008   0.00000   0.00000   0.00020   0.00020   0.00012
   D39       -0.00012   0.00000   0.00000   0.00004   0.00004  -0.00008
   D40        3.14140   0.00000   0.00000   0.00017   0.00017   3.14157
   D41       -0.00001   0.00000   0.00000  -0.00007  -0.00007  -0.00008
   D42        3.14152   0.00000   0.00000  -0.00004  -0.00004   3.14149
   D43        3.14150   0.00000   0.00000   0.00006   0.00006   3.14156
   D44       -0.00015   0.00000   0.00000   0.00009   0.00009  -0.00006
         Item               Value     Threshold  Converged?
 Maximum Force            0.022128     0.000450     NO 
 RMS     Force            0.005632     0.000300     NO 
 Maximum Displacement     0.036257     0.001800     NO 
 RMS     Displacement     0.010502     0.001200     NO 
 Predicted change in Energy=-3.694478D-03
 GradGradGradGradGradGradGradGradGradGradGradGradGradGradGradGradGradGrad

                          Input orientation:                          
 ---------------------------------------------------------------------
 Center     Atomic     Atomic              Coordinates (Angstroms)
 Number     Number      Type              X           Y           Z
 ---------------------------------------------------------------------
    1          6             0       -0.009537    0.000118   -0.008632
    2          6             0       -0.010838   -0.000204    1.372440
    3          6             0        1.097576   -0.000213    2.256843
    4          6             0        1.080525    0.000943   -0.914898
    5          6             0        2.439403    0.000237    1.953574
    6          6             0        2.435086    0.001611   -0.642451
    7          6             0        3.087920    0.001287    0.607173
    8          1             0       -0.989822   -0.000236   -0.483151
    9          1             0       -0.986157   -0.000628    1.855699
   10          1             0        0.845434   -0.000682    3.316859
   11          1             0        0.800132    0.001171   -1.966538
   12          1             0        3.103414    0.002411   -1.503633
   13          6             0        3.501562    0.000159    2.907916
   14          1             0        3.355471   -0.000545    3.981636
   15          6             0        4.702174    0.000942    2.220492
   16          1             0        5.690207    0.001030    2.667271
   17          6             0        4.459913    0.001699    0.815510
   18          1             0        5.221796    0.002489    0.044983
 ---------------------------------------------------------------------
                    Distance matrix (angstroms):
                    1          2          3          4          5
     1  C    0.000000
     2  C    1.381072   0.000000
     3  C    2.521522   1.418009   0.000000
     4  C    1.417588   2.534362   3.171787   0.000000
     5  C    3.138082   2.518213   1.375671   3.174064   0.000000
     6  C    2.525453   3.168964   3.192936   1.381688   2.596029
     7  C    3.158078   3.191854   2.585126   2.519193   1.494446
     8  H    1.089095   2.098006   3.444532   2.114887   4.206806
     9  H    2.104642   1.088480   2.121994   3.456500   3.426958
    10  H    3.433638   2.124610   1.089592   4.238283   2.097447
    11  H    2.118717   3.436051   4.233842   1.088378   4.249057
    12  H    3.453332   4.239147   4.261992   2.106820   3.520397
    13  C    4.564435   3.833359   2.490591   4.524967   1.427918
    14  H    5.219724   4.259101   2.841303   5.399207   2.225358
    15  C    5.212410   4.788703   3.604782   4.790304   2.278460
    16  H    6.296629   5.846238   4.610934   5.837902   3.328226
    17  C    4.544799   4.505307   3.658245   3.796653   2.318977
    18  H    5.231609   5.398390   4.679906   4.251059   3.374083
                    6          7          8          9         10
     6  C    0.000000
     7  C    1.409877   0.000000
     8  H    3.428612   4.220994   0.000000
     9  H    4.236232   4.261094   2.338853   0.000000
    10  H    4.266513   3.517263   4.219982   2.343014   0.000000
    11  H    2.103873   3.443539   2.324731   4.219044   5.283591
    12  H    1.090091   2.110864   4.218528   5.292421   5.323122
    13  C    3.707084   2.337630   5.627776   4.609423   2.687424
    14  H    4.714795   3.385053   6.230241   4.834185   2.596577
    15  C    3.651867   2.282239   6.301469   5.700016   4.009547
    16  H    4.642205   3.319021   7.385658   6.725510   4.888127
    17  C    2.495110   1.387721   5.602334   5.544518   4.395590
    18  H    2.870248   2.206692   6.234031   6.466637   5.464222
                   11         12         13         14         15
    11  H    0.000000
    12  H    2.349338   0.000000
    13  C    5.572972   4.429480   0.000000
    14  H    6.473835   5.491059   1.083614   0.000000
    15  C    5.723386   4.052795   1.383482   2.217034   0.000000
    16  H    6.736840   4.907946   2.201835   2.679282   1.084352
    17  C    4.597150   2.686730   2.301434   3.353230   1.425716
    18  H    4.857709   2.624073   3.339999   4.356652   2.236705
                   16         17         18
    16  H    0.000000
    17  C    2.223205   0.000000
    18  H    2.663794   1.083595   0.000000
 Stoichiometry    C10H8
 Framework group  C1[X(C10H8)]
 Deg. of freedom    48
 Full point group                 C1      NOp   1
 Largest Abelian subgroup         C1      NOp   1
 Largest concise Abelian subgroup C1      NOp   1
                         Standard orientation:                         
 ---------------------------------------------------------------------
 Center     Atomic     Atomic              Coordinates (Angstroms)
 Number     Number      Type              X           Y           Z
 ---------------------------------------------------------------------
    1          6             0        2.504519   -0.025349    0.000154
    2          6             0        1.909959   -1.271888   -0.000153
    3          6             0        0.528476   -1.591660   -0.000125
    4          6             0        1.912007    1.262473    0.000156
    5          6             0       -0.551279   -0.739252    0.000073
    6          6             0        0.572425    1.600974   -0.000121
    7          6             0       -0.555582    0.755188   -0.000117
    8          1             0        3.593601   -0.020098    0.000352
    9          1             0        2.581418   -2.128586   -0.000319
   10          1             0        0.298710   -2.656751   -0.000235
   11          1             0        2.618604    2.090294    0.000300
   12          1             0        0.340948    2.666204   -0.000274
   13          6             0       -1.921200   -1.142073    0.000120
   14          1             0       -2.252556   -2.173782    0.000280
   15          6             0       -2.707847   -0.004001    0.000107
   16          1             0       -3.791953    0.019117    0.000191
   17          6             0       -1.883237    1.159048   -0.000103
   18          1             0       -2.238223    2.182846   -0.000252
 ---------------------------------------------------------------------
 Rotational constants (GHZ):      2.8441375      1.2512996      0.8689837
 Standard basis: 6-31G(d) (6D, 7F)
 There are   166 symmetry adapted basis functions of A   symmetry.
 Integral buffers will be    262144 words long.
 Raffenetti 2 integral format.
 Two-electron integral symmetry is turned on.
   166 basis functions,   312 primitive gaussians,   166 cartesian basis functions
    34 alpha electrons       34 beta electrons
       nuclear repulsion energy       453.2763424003 Hartrees.
 NAtoms=   18 NActive=   18 NUniq=   18 SFac= 1.00D+00 NAtFMM=   60 Big=F
 One-electron integrals computed using PRISM.
 NBasis=   166 RedAO= T  NBF=   166
 NBsUse=   166 1.00D-06 NBFU=   166
 Initial guess read from the read-write file:
 Initial guess orbital symmetries:
       Occupied  (A) (A) (A) (A) (A) (A) (A) (A) (A) (A) (A) (A)
                 (A) (A) (A) (A) (A) (A) (A) (A) (A) (A) (A) (A)
                 (A) (A) (A) (A) (A) (A) (A) (A) (A) (A)
       Virtual   (A) (A) (A) (A) (A) (A) (A) (A) (A) (A) (A) (A)
                 (A) (A) (A) (A) (A) (A) (A) (A) (A) (A) (A) (A)
                 (A) (A) (A) (A) (A) (A) (A) (A) (A) (A) (A) (A)
                 (A) (A) (A) (A) (A) (A) (A) (A) (A) (A) (A) (A)
                 (A) (A) (A) (A) (A) (A) (A) (A) (A) (A) (A) (A)
                 (A) (A) (A) (A) (A) (A) (A) (A) (A) (A) (A) (A)
                 (A) (A) (A) (A) (A) (A) (A) (A) (A) (A) (A) (A)
                 (A) (A) (A) (A) (A) (A) (A) (A) (A) (A) (A) (A)
                 (A) (A) (A) (A) (A) (A) (A) (A) (A) (A) (A) (A)
                 (A) (A) (A) (A) (A) (A) (A) (A) (A) (A) (A) (A)
                 (A) (A) (A) (A) (A) (A) (A) (A) (A) (A) (A) (A)
 Harris functional with IExCor=  402 diagonalized for initial guess.
 ExpMin= 1.61D-01 ExpMax= 3.05D+03 ExpMxC= 4.57D+02 IAcc=1 IRadAn=         1 AccDes= 1.00D-06
 HarFok:  IExCor= 402 AccDes= 1.00D-06 IRadAn=         1 IDoV=1
 ScaDFX=  1.000000  1.000000  1.000000  1.000000
 Requested convergence on RMS density matrix=1.00D-08 within 128 cycles.
 Requested convergence on MAX density matrix=1.00D-06.
 Requested convergence on             energy=1.00D-06.
 No special actions if energy rises.
 Integral accuracy reduced to 1.0D-05 until final iterations.
 Initial convergence to 1.0D-05 achieved.  Increase integral accuracy.
 SCF Done:  E(RB+HF-LYP) =  -385.836940820     A.U. after   15 cycles
             Convg  =    0.4365D-08             -V/T =  2.0099
             S**2   =   0.0000
 ***** Axes restored to original set *****
 -------------------------------------------------------------------
 Center     Atomic                   Forces (Hartrees/Bohr)
 Number     Number              X              Y              Z
 -------------------------------------------------------------------
    1          6           0.005195100    0.000009716   -0.009596063
    2          6           0.004626486   -0.000009783    0.010476897
    3          6          -0.011410254   -0.000002645   -0.005314327
    4          6          -0.010342546   -0.000002181    0.002144452
    5          6           0.010939274    0.000021173    0.007809791
    6          6           0.008043353   -0.000002259    0.006596887
    7          6          -0.008548013   -0.000010039   -0.009155346
    8          1          -0.000218380    0.000003586    0.000601762
    9          1           0.000080504   -0.000002763   -0.000738432
   10          1           0.000599733   -0.000001073    0.000232894
   11          1           0.000843910    0.000000691    0.000141602
   12          1          -0.000724494   -0.000002802   -0.000514152
   13          6          -0.012318529   -0.000018393   -0.001963843
   14          1           0.001146792    0.000002734    0.000100914
   15          6           0.006005039    0.000015424   -0.009764629
   16          1           0.000175409   -0.000000140    0.001041137
   17          6           0.006417162    0.000001668    0.008413464
   18          1          -0.000510545   -0.000002913   -0.000513006
 -------------------------------------------------------------------
 Cartesian Forces:  Max     0.012318529 RMS     0.005038463

 GradGradGradGradGradGradGradGradGradGradGradGradGradGradGradGradGradGrad
 Berny optimization.
 Internal  Forces:  Max     0.007174433 RMS     0.002020782
 Search for a local minimum.
 Step number   2 out of a maximum of 103
 All quantities printed in internal units (Hartrees-Bohrs-Radians)
 Update second derivatives using D2CorX and points  1  2
 Trust test= 1.17D+00 RLast= 1.38D-01 DXMaxT set to 4.15D-01
     Eigenvalues ---    0.01469   0.01667   0.01783   0.01823   0.01870
     Eigenvalues ---    0.01888   0.02047   0.02070   0.02136   0.02250
     Eigenvalues ---    0.02262   0.02276   0.02280   0.02412   0.02503
     Eigenvalues ---    0.15246   0.16000   0.16000   0.16000   0.16000
     Eigenvalues ---    0.16000   0.16000   0.16022   0.21888   0.22000
     Eigenvalues ---    0.22362   0.22620   0.23840   0.24571   0.27777
     Eigenvalues ---    0.32147   0.32615   0.32644   0.32721   0.32769
     Eigenvalues ---    0.34652   0.35000   0.35079   0.35276   0.36922
     Eigenvalues ---    0.41524   0.42374   0.43614   0.45560   0.47125
     Eigenvalues ---    0.51302   0.51973   0.561891000.000001000.00000
     Eigenvalues --- 1000.000001000.000001000.000001000.000001000.00000
     Eigenvalues --- 1000.000001000.000001000.000001000.000001000.00000
     Eigenvalues --- 1000.000001000.000001000.000001000.000001000.00000
     Eigenvalues --- 1000.000001000.000001000.000001000.000001000.00000
     Eigenvalues --- 1000.000001000.000001000.000001000.000001000.00000
     Eigenvalues --- 1000.000001000.000001000.000001000.000001000.00000
     Eigenvalues --- 1000.000001000.000001000.000001000.000001000.00000
     Eigenvalues --- 1000.000001000.000001000.000001000.000001000.00000
     Eigenvalues --- 1000.000001000.000001000.00000
 RFO step:  Lambda=-9.80210286D-04.
 Quartic linear search produced a step of  0.22229.
 Iteration  1 RMS(Cart)=  0.00475410 RMS(Int)=  0.00002210
 Iteration  2 RMS(Cart)=  0.00002646 RMS(Int)=  0.00000291
 Iteration  3 RMS(Cart)=  0.00000000 RMS(Int)=  0.00000291
 Variable       Old X    -DE/DX   Delta X   Delta X   Delta X     New X
                                 (Linear)    (Quad)   (Total)
    R1        2.60985   0.00536   0.00855   0.00880   0.01735   2.62719
    R2        2.67885  -0.00604   0.00076  -0.01750  -0.01674   2.66212
    R3        2.05809  -0.00007  -0.00877   0.00356  -0.00520   2.05289
    R4        2.67965  -0.00653   0.00094  -0.01877  -0.01784   2.66181
    R5        2.05693  -0.00040  -0.00834   0.00213  -0.00621   2.05072
    R6        2.59964   0.00565   0.00803   0.00960   0.01764   2.61728
    R7        2.05903   0.00009  -0.00835   0.00395  -0.00440   2.05463
    R8        2.61101   0.00485   0.00915   0.00725   0.01640   2.62741
    R9        2.05674  -0.00035  -0.00846   0.00236  -0.00610   2.05063
   R10        2.82409   0.00204   0.00427   0.00537   0.00964   2.83373
   R11        2.69837  -0.00639  -0.01244  -0.01600  -0.02845   2.66993
   R12        2.66428  -0.00542  -0.00056  -0.01489  -0.01545   2.64883
   R13        2.05997  -0.00004  -0.00824   0.00344  -0.00481   2.05517
   R14        2.62241   0.00561  -0.00173   0.01555   0.01382   2.63623
   R15        2.04773  -0.00005  -0.00171   0.00055  -0.00116   2.04657
   R16        2.61440   0.00717   0.00116   0.01730   0.01847   2.63287
   R17        2.04913   0.00059  -0.00205   0.00294   0.00089   2.05002
   R18        2.69421  -0.00600  -0.00793  -0.01503  -0.02295   2.67126
   R19        2.04770   0.00001  -0.00174   0.00077  -0.00097   2.04673
    A1        2.26533   0.00026   0.00027   0.00088   0.00114   2.26647
    A2        2.02067  -0.00078  -0.00178  -0.00462  -0.00640   2.01427
    A3        1.99719   0.00053   0.00151   0.00374   0.00526   2.00245
    A4        2.24331   0.00001  -0.00136   0.00069  -0.00067   2.24264
    A5        2.03177  -0.00065  -0.00112  -0.00436  -0.00548   2.02629
    A6        2.00810   0.00064   0.00248   0.00367   0.00616   2.01426
    A7        2.24586   0.00073   0.00254   0.00316   0.00571   2.25157
    A8        2.01073   0.00029   0.00063   0.00248   0.00311   2.01384
    A9        2.02660  -0.00102  -0.00318  -0.00565  -0.00882   2.01777
   A10        2.24952  -0.00016  -0.00128  -0.00098  -0.00227   2.24725
   A11        2.00382   0.00088   0.00217   0.00583   0.00800   2.01183
   A12        2.02984  -0.00072  -0.00089  -0.00485  -0.00574   2.02411
   A13        2.24195  -0.00199  -0.00254  -0.00784  -0.01037   2.23157
   A14        2.18733   0.00145   0.00085   0.00704   0.00789   2.19522
   A15        1.85390   0.00054   0.00169   0.00081   0.00249   1.85639
   A16        2.25071   0.00046   0.00169   0.00125   0.00294   2.25365
   A17        2.03228  -0.00115  -0.00244  -0.00680  -0.00924   2.02305
   A18        2.00020   0.00068   0.00075   0.00555   0.00630   2.00649
   A19        2.21129   0.00069   0.00068   0.00284   0.00352   2.21482
   A20        1.86897  -0.00120  -0.00186  -0.00471  -0.00658   1.86239
   A21        2.20292   0.00050   0.00119   0.00187   0.00305   2.20597
   A22        2.16755   0.00070   0.00190   0.00590   0.00781   2.17535
   A23        1.88961   0.00095  -0.00167   0.00504   0.00337   1.89298
   A24        2.22603  -0.00165  -0.00023  -0.01094  -0.01118   2.21485
   A25        2.19692  -0.00063  -0.00380  -0.00366  -0.00746   2.18946
   A26        1.92004  -0.00054   0.00347  -0.00432  -0.00083   1.91921
   A27        2.16622   0.00117   0.00032   0.00798   0.00830   2.17452
   A28        1.89225   0.00025  -0.00163   0.00318   0.00155   1.89380
   A29        2.19986  -0.00087  -0.00200  -0.00586  -0.00786   2.19199
   A30        2.19108   0.00062   0.00363   0.00268   0.00631   2.19739
    D1       -0.00039   0.00001   0.00008   0.00019   0.00027  -0.00012
    D2        3.14135   0.00000   0.00003   0.00013   0.00017   3.14152
    D3        3.14130   0.00000   0.00006   0.00014   0.00020   3.14150
    D4       -0.00015   0.00000   0.00002   0.00008   0.00010  -0.00005
    D5        0.00003   0.00000  -0.00001  -0.00003  -0.00004  -0.00001
    D6       -3.14145   0.00000  -0.00004  -0.00008  -0.00012  -3.14157
    D7        3.14153   0.00000   0.00000   0.00002   0.00002   3.14156
    D8        0.00006   0.00000  -0.00002  -0.00003  -0.00005   0.00000
    D9        0.00013   0.00000  -0.00003  -0.00006  -0.00009   0.00005
   D10       -3.14141   0.00000  -0.00005  -0.00004  -0.00009  -3.14150
   D11        3.14158   0.00000   0.00002   0.00000   0.00001  -3.14159
   D12        0.00004   0.00000  -0.00001   0.00002   0.00001   0.00005
   D13        0.00037   0.00000  -0.00006  -0.00018  -0.00024   0.00013
   D14       -3.14156   0.00000  -0.00005   0.00013   0.00008  -3.14148
   D15       -3.14127   0.00000  -0.00003  -0.00021  -0.00024  -3.14151
   D16       -0.00002   0.00000  -0.00003   0.00011   0.00008   0.00006
   D17        0.00033   0.00000  -0.00006  -0.00014  -0.00021   0.00012
   D18       -3.14137   0.00000  -0.00003  -0.00007  -0.00010  -3.14147
   D19       -3.14138   0.00000  -0.00004  -0.00009  -0.00013  -3.14151
   D20        0.00011   0.00000  -0.00001  -0.00002  -0.00003   0.00008
   D21       -0.00038   0.00000   0.00005   0.00019   0.00023  -0.00015
   D22        3.14136   0.00000   0.00005   0.00005   0.00009   3.14145
   D23        3.14150   0.00000   0.00004  -0.00008  -0.00004   3.14146
   D24        0.00005   0.00000   0.00004  -0.00023  -0.00018  -0.00013
   D25        0.00031   0.00000  -0.00005  -0.00016  -0.00021   0.00010
   D26       -3.14142   0.00000  -0.00006   0.00007   0.00001  -3.14141
   D27       -3.14156   0.00000  -0.00005   0.00010   0.00005  -3.14151
   D28       -0.00010   0.00000  -0.00005   0.00033   0.00027   0.00017
   D29       -0.00010   0.00000   0.00004   0.00004   0.00008  -0.00002
   D30        3.14132   0.00000   0.00004   0.00021   0.00025   3.14157
   D31       -3.14159   0.00000   0.00001  -0.00003  -0.00002   3.14158
   D32       -0.00016   0.00000   0.00001   0.00014   0.00015  -0.00002
   D33        0.00002   0.00000  -0.00002   0.00004   0.00002   0.00004
   D34       -3.14155   0.00000  -0.00003   0.00003   0.00000  -3.14155
   D35       -3.14144   0.00000  -0.00002  -0.00010  -0.00012  -3.14155
   D36        0.00018   0.00000  -0.00003  -0.00011  -0.00014   0.00005
   D37       -3.14153   0.00000   0.00001  -0.00013  -0.00012   3.14154
   D38        0.00012   0.00000   0.00004  -0.00031  -0.00027  -0.00015
   D39       -0.00008   0.00000   0.00001   0.00011   0.00011   0.00004
   D40        3.14157   0.00000   0.00004  -0.00007  -0.00004   3.14153
   D41       -0.00008   0.00000  -0.00002   0.00017   0.00015   0.00007
   D42        3.14149   0.00000  -0.00001   0.00018   0.00017  -3.14153
   D43        3.14156   0.00000   0.00001  -0.00001   0.00000   3.14157
   D44       -0.00006   0.00000   0.00002   0.00000   0.00002  -0.00003
         Item               Value     Threshold  Converged?
 Maximum Force            0.007174     0.000450     NO 
 RMS     Force            0.002021     0.000300     NO 
 Maximum Displacement     0.016059     0.001800     NO 
 RMS     Displacement     0.004752     0.001200     NO 
 Predicted change in Energy=-6.495654D-04
 GradGradGradGradGradGradGradGradGradGradGradGradGradGradGradGradGradGrad

                          Input orientation:                          
 ---------------------------------------------------------------------
 Center     Atomic     Atomic              Coordinates (Angstroms)
 Number     Number      Type              X           Y           Z
 ---------------------------------------------------------------------
    1          6             0       -0.007782    0.000234   -0.012933
    2          6             0       -0.010797   -0.000271    1.377315
    3          6             0        1.089752   -0.000265    2.256439
    4          6             0        1.075548    0.001005   -0.913443
    5          6             0        2.442570    0.000290    1.959581
    6          6             0        2.437969    0.001479   -0.636076
    7          6             0        3.087744    0.001187    0.605923
    8          1             0       -0.988025    0.000021   -0.481188
    9          1             0       -0.986384   -0.000771    1.852582
   10          1             0        0.840858   -0.000812    3.314833
   11          1             0        0.804479    0.001297   -1.964188
   12          1             0        3.098808    0.002175   -1.499818
   13          6             0        3.495063    0.000131    2.902157
   14          1             0        3.359179   -0.000536    3.976596
   15          6             0        4.705364    0.001088    2.211994
   16          1             0        5.689666    0.001263    2.668055
   17          6             0        4.466445    0.001677    0.818761
   18          1             0        5.223803    0.002395    0.044504
 ---------------------------------------------------------------------
                    Distance matrix (angstroms):
                    1          2          3          4          5
     1  C    0.000000
     2  C    1.390251   0.000000
     3  C    2.520840   1.408570   0.000000
     4  C    1.408731   2.535294   3.169913   0.000000
     5  C    3.145638   2.521517   1.385006   3.181669   0.000000
     6  C    2.523887   3.170205   3.191290   1.390368   2.595661
     7  C    3.156781   3.193118   2.591558   2.521389   1.499547
     8  H    1.086341   2.099763   3.436824   2.108359   4.210266
     9  H    2.106611   1.085196   2.115052   3.449994   3.430624
    10  H    3.434272   2.116435   1.087266   4.234784   2.098140
    11  H    2.113567   3.439523   4.230257   1.085147   4.251977
    12  H    3.444087   4.236454   4.259786   2.106518   3.521092
    13  C    4.557156   3.823113   2.490475   4.518058   1.412865
    14  H    5.220419   4.255938   2.847673   5.396986   2.215519
    15  C    5.211914   4.789454   3.615885   4.789981   2.276829
    16  H    6.296714   5.844766   4.618293   5.840993   3.323487
    17  C    4.550871   4.511949   3.670010   3.807717   2.323260
    18  H    5.231901   5.401613   4.688607   4.257426   3.376800
                    6          7          8          9         10
     6  C    0.000000
     7  C    1.401702   0.000000
     8  H    3.429493   4.218258   0.000000
     9  H    4.233157   4.260597   2.333771   0.000000
    10  H    4.261508   3.519474   4.213620   2.340298   0.000000
    11  H    2.105272   3.437843   2.326448   4.216033   5.279147
    12  H    1.087548   2.105770   4.211866   5.284637   5.317820
    13  C    3.692768   2.332080   5.616502   4.602714   2.686095
    14  H    4.703762   3.381585   6.226558   4.836875   2.603819
    15  C    3.640410   2.279509   6.298246   5.703085   4.018789
    16  H    4.635818   3.319998   7.383040   6.725671   4.891755
    17  C    2.496250   1.395033   5.607237   5.549967   4.401733
    18  H    2.867762   2.208606   6.234032   6.468043   5.468571
                   11         12         13         14         15
    11  H    0.000000
    12  H    2.340851   0.000000
    13  C    5.560625   4.419774   0.000000
    14  H    6.466793   5.482601   1.082998   0.000000
    15  C    5.714665   4.044573   1.393253   2.219468   0.000000
    16  H    6.732215   4.907515   2.207054   2.672724   1.084823
    17  C    4.599435   2.691884   2.298722   3.346336   1.413570
    18  H    4.854407   2.626887   3.339869   4.351802   2.228630
                   16         17         18
    16  H    0.000000
    17  C    2.217241   0.000000
    18  H    2.664591   1.083082   0.000000
 Stoichiometry    C10H8
 Framework group  C1[X(C10H8)]
 Deg. of freedom    48
 Full point group                 C1      NOp   1
 Largest Abelian subgroup         C1      NOp   1
 Largest concise Abelian subgroup C1      NOp   1
                         Standard orientation:                         
 ---------------------------------------------------------------------
 Center     Atomic     Atomic              Coordinates (Angstroms)
 Number     Number      Type              X           Y           Z
 ---------------------------------------------------------------------
    1          6             0        2.504774   -0.012406    0.000035
    2          6             0        1.911880   -1.269894   -0.000088
    3          6             0        0.540809   -1.592747   -0.000072
    4          6             0        1.911702    1.265400    0.000082
    5          6             0       -0.554384   -0.744931    0.000021
    6          6             0        0.561819    1.598474    0.000000
    7          6             0       -0.557407    0.754612   -0.000020
    8          1             0        3.591111   -0.009262    0.000086
    9          1             0        2.589782   -2.117301   -0.000173
   10          1             0        0.312262   -2.655721   -0.000097
   11          1             0        2.606800    2.098697    0.000161
   12          1             0        0.334749    2.662052   -0.000055
   13          6             0       -1.909216   -1.145706    0.000155
   14          1             0       -2.246752   -2.174762    0.000286
   15          6             0       -2.707133   -0.003567   -0.000031
   16          1             0       -3.791914    0.006047   -0.000037
   17          6             0       -1.894355    1.152967   -0.000082
   18          1             0       -2.246975    2.177040   -0.000164
 ---------------------------------------------------------------------
 Rotational constants (GHZ):      2.8453082      1.2511259      0.8690092
 Standard basis: 6-31G(d) (6D, 7F)
 There are   166 symmetry adapted basis functions of A   symmetry.
 Integral buffers will be    262144 words long.
 Raffenetti 2 integral format.
 Two-electron integral symmetry is turned on.
   166 basis functions,   312 primitive gaussians,   166 cartesian basis functions
    34 alpha electrons       34 beta electrons
       nuclear repulsion energy       453.3600397023 Hartrees.
 NAtoms=   18 NActive=   18 NUniq=   18 SFac= 1.00D+00 NAtFMM=   60 Big=F
 One-electron integrals computed using PRISM.
 NBasis=   166 RedAO= T  NBF=   166
 NBsUse=   166 1.00D-06 NBFU=   166
 Initial guess read from the read-write file:
 Initial guess orbital symmetries:
       Occupied  (A) (A) (A) (A) (A) (A) (A) (A) (A) (A) (A) (A)
                 (A) (A) (A) (A) (A) (A) (A) (A) (A) (A) (A) (A)
                 (A) (A) (A) (A) (A) (A) (A) (A) (A) (A)
       Virtual   (A) (A) (A) (A) (A) (A) (A) (A) (A) (A) (A) (A)
                 (A) (A) (A) (A) (A) (A) (A) (A) (A) (A) (A) (A)
                 (A) (A) (A) (A) (A) (A) (A) (A) (A) (A) (A) (A)
                 (A) (A) (A) (A) (A) (A) (A) (A) (A) (A) (A) (A)
                 (A) (A) (A) (A) (A) (A) (A) (A) (A) (A) (A) (A)
                 (A) (A) (A) (A) (A) (A) (A) (A) (A) (A) (A) (A)
                 (A) (A) (A) (A) (A) (A) (A) (A) (A) (A) (A) (A)
                 (A) (A) (A) (A) (A) (A) (A) (A) (A) (A) (A) (A)
                 (A) (A) (A) (A) (A) (A) (A) (A) (A) (A) (A) (A)
                 (A) (A) (A) (A) (A) (A) (A) (A) (A) (A) (A) (A)
                 (A) (A) (A) (A) (A) (A) (A) (A) (A) (A) (A) (A)
 Requested convergence on RMS density matrix=1.00D-08 within 128 cycles.
 Requested convergence on MAX density matrix=1.00D-06.
 Requested convergence on             energy=1.00D-06.
 No special actions if energy rises.
 SCF Done:  E(RB+HF-LYP) =  -385.837841220     A.U. after   12 cycles
             Convg  =    0.4521D-08             -V/T =  2.0098
             S**2   =   0.0000
 ***** Axes restored to original set *****
 -------------------------------------------------------------------
 Center     Atomic                   Forces (Hartrees/Bohr)
 Number     Number              X              Y              Z
 -------------------------------------------------------------------
    1          6           0.004646980    0.000004240   -0.004092874
    2          6           0.005216412    0.000000433    0.003909804
    3          6          -0.005034919   -0.000004424   -0.004589951
    4          6          -0.004856743   -0.000002964    0.004142008
    5          6           0.002976784   -0.000012347    0.001510864
    6          6           0.003247760    0.000000514    0.004894352
    7          6          -0.006621214    0.000006603   -0.004456670
    8          1          -0.001796512    0.000000309   -0.000520635
    9          1          -0.001696197   -0.000001774    0.000491563
   10          1          -0.000112704   -0.000000484    0.001850687
   11          1          -0.000101436    0.000001489   -0.001807705
   12          1           0.000847976   -0.000001559   -0.001545602
   13          6          -0.005120452    0.000012929    0.000708149
   14          1           0.000609408    0.000003017    0.000563820
   15          6           0.003763576   -0.000009722   -0.004287400
   16          1           0.000030563   -0.000000090    0.000475643
   17          6           0.003936416    0.000003888    0.003300911
   18          1           0.000064300   -0.000000056   -0.000546964
 -------------------------------------------------------------------
 Cartesian Forces:  Max     0.006621214 RMS     0.002655094

 GradGradGradGradGradGradGradGradGradGradGradGradGradGradGradGradGradGrad
 Berny optimization.
 Internal  Forces:  Max     0.004265744 RMS     0.001124757
 Search for a local minimum.
 Step number   3 out of a maximum of 103
 All quantities printed in internal units (Hartrees-Bohrs-Radians)
 Update second derivatives using D2CorX and points  1  2  3
 Trust test= 1.39D+00 RLast= 7.06D-02 DXMaxT set to 4.15D-01
     Eigenvalues ---    0.01469   0.01665   0.01781   0.01822   0.01864
     Eigenvalues ---    0.01892   0.02046   0.02068   0.02135   0.02248
     Eigenvalues ---    0.02260   0.02276   0.02277   0.02411   0.02502
     Eigenvalues ---    0.12297   0.16000   0.16000   0.16000   0.16000
     Eigenvalues ---    0.16000   0.16012   0.16019   0.20471   0.22004
     Eigenvalues ---    0.22050   0.22442   0.23218   0.24214   0.25865
     Eigenvalues ---    0.32098   0.32615   0.32644   0.32720   0.32769
     Eigenvalues ---    0.34823   0.34998   0.35079   0.35436   0.36962
     Eigenvalues ---    0.41520   0.42323   0.43067   0.45681   0.46036
     Eigenvalues ---    0.51353   0.51955   0.605001000.000001000.00000
     Eigenvalues --- 1000.000001000.000001000.000001000.000001000.00000
     Eigenvalues --- 1000.000001000.000001000.000001000.000001000.00000
     Eigenvalues --- 1000.000001000.000001000.000001000.000001000.00000
     Eigenvalues --- 1000.000001000.000001000.000001000.000001000.00000
     Eigenvalues --- 1000.000001000.000001000.000001000.000001000.00000
     Eigenvalues --- 1000.000001000.000001000.000001000.000001000.00000
     Eigenvalues --- 1000.000001000.000001000.000001000.000001000.00000
     Eigenvalues --- 1000.000001000.000001000.000001000.000001000.00000
     Eigenvalues --- 1000.000001000.000001000.00000
 RFO step:  Lambda=-1.97964658D-04.
 Quartic linear search produced a step of  0.66790.
 Iteration  1 RMS(Cart)=  0.00407952 RMS(Int)=  0.00001666
 Iteration  2 RMS(Cart)=  0.00001748 RMS(Int)=  0.00000267
 Iteration  3 RMS(Cart)=  0.00000000 RMS(Int)=  0.00000267
 Variable       Old X    -DE/DX   Delta X   Delta X   Delta X     New X
                                 (Linear)    (Quad)   (Total)
    R1        2.62719   0.00201   0.01159   0.00227   0.01385   2.64104
    R2        2.66212  -0.00403  -0.01118  -0.00606  -0.01725   2.64487
    R3        2.05289   0.00185  -0.00348   0.00653   0.00305   2.05594
    R4        2.66181  -0.00407  -0.01191  -0.00547  -0.01738   2.64443
    R5        2.05072   0.00174  -0.00414   0.00671   0.00257   2.05329
    R6        2.61728   0.00173   0.01178   0.00101   0.01279   2.63008
    R7        2.05463   0.00183  -0.00294   0.00626   0.00333   2.05796
    R8        2.62741   0.00190   0.01095   0.00271   0.01366   2.64108
    R9        2.05063   0.00178  -0.00408   0.00677   0.00269   2.05332
   R10        2.83373   0.00037   0.00644  -0.00087   0.00557   2.83930
   R11        2.66993  -0.00081  -0.01900   0.00340  -0.01560   2.65433
   R12        2.64883  -0.00375  -0.01032  -0.00617  -0.01648   2.63235
   R13        2.05517   0.00174  -0.00321   0.00612   0.00292   2.05808
   R14        2.63623   0.00397   0.00923   0.00554   0.01477   2.65100
   R15        2.04657   0.00048  -0.00078   0.00177   0.00100   2.04757
   R16        2.63287   0.00427   0.01233   0.00534   0.01767   2.65054
   R17        2.05002   0.00023   0.00059  -0.00057   0.00002   2.05004
   R18        2.67126  -0.00201  -0.01533  -0.00098  -0.01631   2.65495
   R19        2.04673   0.00044  -0.00065   0.00145   0.00080   2.04753
    A1        2.26647  -0.00005   0.00076  -0.00106  -0.00030   2.26616
    A2        2.01427  -0.00029  -0.00427  -0.00055  -0.00482   2.00945
    A3        2.00245   0.00034   0.00351   0.00160   0.00512   2.00757
[...]
 4606,-0.0000579,0.0554087,-0.3684734,-0.0002032,-0.0244567,-0.0002377,
 0.0413898,0.0000329,0.6496729,0.0001824,0.1528878,0.4859248,0.000162,-
 0.0817874,0.0001185,-0.0493211,-0.0001798,0.1424528,-0.0000816,0.20643
 68,0.2483637,0.0000447,0.1403425,0.000244,0.0414151,0.0002264,-0.53379
 07,0.0000803,-0.4642059,-0.1092445,-0.0000421,-0.0757298,-0.0000228,0.
 0996483,-0.0000104,-0.0757145,0.0000101,0.0157849,-0.1055454,-0.000097
 ,0.0624148,-0.0001095,0.1119327,0.0000459,0.0756175,0.0000644,0.011262
 2,0.0431802,-0.000021,0.0259106,-0.0000809,0.0976592,0.0001294,0.05579
 51,0.0001061,-0.1075613,0.0317049,-0.0000136,-0.0376314,0.0000042,0.11
 19315,0.0000899,-0.0508656,0.000074,-0.1259855,-0.0063611,-0.0000737,0
 .0966755,-0.0001083,0.0976618,0.0001248,0.0668142,0.0000824,-0.0580252
 ,-0.328497,0.0000236,-0.0899073,-0.0000557,-0.2197726,-0.000017,-0.179
 1612,-0.0003101,0.0301869,0.0642585,-0.0000695,0.0527025,-0.0001205,0.
 1336294,0.0000236,-0.0049364,0.0001859,-0.0936828,0.2379971,0.000184,0
 .0596829,0.0000785,-0.0941083,-0.0001887,0.0595256,-0.0000865,0.139345
 3,-0.0909874,-0.0000991,-0.0832254,0.0001311,0.1212386,0.0001094,-0.08
 32232,-0.0000091,0.0463993,-0.247047,0.0001358,-0.2461031,0.0000701,-0
 .2197676,-0.0002208,-0.1567028,-0.0000979,-0.0510624,-0.0062246,-0.000
 0986,0.0532414,-0.0001728,0.1336306,0.0000772,0.1108726,0.0001181,-0.0
 231679|Polar=165.0058785,0.0413248,32.876084,22.755292,-0.03446,127.44
 53045|PG=C01 [X(C10H8)]|NImag=0||0.67516758,0.00017674,0.13435493,-0.0
 0935252,-0.00020247,0.69039942,-0.12691716,-0.00004111,0.04565031,0.67
 891994,-0.00000830,-0.05685001,0.00010242,0.00019345,0.12108796,-0.041
 95839,0.00007542,-0.31442273,0.00328506,-0.00020945,0.68340102,0.03388
 929,0.00004028,-0.07914192,-0.24261129,-0.00005012,-0.04833474,0.70403
 686,0.00002202,0.00287616,-0.00001002,-0.00000948,-0.05677747,0.000051
 57,0.00017294,0.14074854,-0.01912973,0.00001143,-0.04271178,-0.1341148
 3,0.00001157,-0.20152575,0.00486507,-0.00025195,0.67223348,-0.23672993
 ,-0.00007163,0.04868721,0.03703804,-0.00002327,0.08029245,-0.05939258,
 -0.00001487,-0.01748325,0.68477474,-0.00010589,-0.05683865,0.00007028,
 0.00000410,0.00517281,0.00004498,-0.00002535,-0.00224968,-0.00000960,0
 .00017725,0.12108695,0.13628856,0.00009755,-0.20477887,0.01676004,0.00
 002489,-0.04307539,0.01881950,0.00000189,0.00549270,-0.00171073,-0.000
 21953,0.67758118,-0.01734459,-0.00002363,0.04763501,-0.06124525,0.0000
 0460,-0.05656129,-0.31298515,-0.00010350,0.08602426,0.03759856,0.00001
 840,-0.00922149,0.78064872,-0.00000293,-0.00244588,0.00000532,-0.00000
 073,0.00396052,-0.00001902,-0.00010412,-0.05796965,0.00006034,0.000006
 51,-0.00464810,-0.00000035,0.00017287,0.15055312,-0.00438405,-0.000009
 69,0.01627197,-0.03577724,-0.00000669,0.00175362,0.08459930,0.00005818
 ,-0.12452093,0.01393311,0.00000518,-0.00755280,-0.01687846,-0.00023144
 ,0.53437251,-0.05991655,-0.00004338,0.05829718,-0.02014789,0.00001608,
 -0.04987659,0.04338973,0.00001227,0.01092483,-0.30762589,-0.00004694,-
 0.08033488,-0.01140572,-0.00000166,-0.00432056,0.68977815,-0.00002186,
 0.00287660,-0.00000007,0.00000048,-0.00225229,-0.00000490,0.00000351,-
 0.00200021,-0.00000026,-0.00008494,-0.05678608,0.00000850,0.00000639,0
 .00045217,0.00001198,0.00019776,0.14075580,-0.00171137,-0.00002057,0.0
 5109216,-0.01357729,0.00000841,-0.03375123,0.03067844,0.00000728,0.009
 04323,0.00544786,0.00003448,-0.13638652,-0.03302475,0.00000351,-0.0284
 7922,0.01651996,-0.00021726,0.68640618,0.02388365,0.00002486,-0.038424
 78,0.01306488,-0.00000968,0.03419905,-0.03990805,-0.00002678,0.0191918
 2,-0.06910862,-0.00001507,-0.02927785,-0.08116558,-0.00002656,0.062532
 21,-0.11713315,0.00001144,-0.07706981,0.61740077,0.00000584,-0.0024433
 4,-0.00000577,0.00000061,-0.00464635,0.00000428,-0.00001011,0.00045105
 ,0.00000844,-0.00000946,0.00396061,-0.00001484,-0.00001934,-0.07341070
 ,0.00005512,0.00000994,-0.05797084,0.00006781,0.00016504,0.15056775,0.
 01360197,0.00001397,-0.02494700,0.01103120,-0.00000695,0.01697919,-0.0
 0949980,-0.00000100,0.00001390,-0.05006062,-0.00001817,0.00961411,0.04
 049344,0.00005120,-0.16621121,-0.07565404,0.00006877,-0.32040444,0.117
 68794,-0.00017478,0.69744917,-0.28245534,-0.00004020,-0.10525234,0.000
 95020,-0.00000153,0.00154846,0.00229868,-0.00000149,0.00016468,-0.0221
 4737,-0.00000399,-0.01214717,-0.00031140,-0.00000019,0.00021666,-0.001
 37570,-0.00000457,0.00427791,0.00064473,-0.00000012,0.00035439,0.30142
 904,-0.00004093,-0.03926613,-0.00000657,0.00000864,0.00467695,0.000004
 39,0.00000024,0.00715100,0.00000535,-0.00001400,0.00467723,-0.00000643
 ,-0.00000159,0.00023899,-0.00000013,-0.00000559,0.00715461,0.00000402,
 0.00000117,0.00023860,0.00000095,0.00004836,0.02601066,-0.10525119,-0.
 00000860,-0.10867174,-0.03121453,-0.00000420,-0.01339931,0.00124437,0.
 00000512,-0.00504404,0.02061480,0.00000452,0.00970120,0.00114412,0.000
 00057,0.00017330,0.00319850,0.00000412,-0.00136854,-0.00057292,0.00000
 010,-0.00078282,0.11058849,0.00000235,0.11883605,0.00126918,0.00000041
 ,-0.00188222,-0.28315576,-0.00013147,0.10742782,-0.02285535,-0.0000136
 1,0.01197169,0.00208797,-0.00000199,-0.00030355,-0.00098778,0.00000026
 ,-0.00452377,-0.00034467,0.00000013,-0.00053750,0.00069220,0.00000013,
 -0.00012154,0.00152066,0.00000237,-0.00017918,0.30230126,-0.00001161,0
 .00222273,0.00000372,-0.00013057,-0.03479673,0.00006904,-0.00000113,0.
 00227658,0.00000065,-0.00000179,0.00679343,0.00000435,-0.00000192,0.00
 727859,0.00000322,0.00000072,-0.00008340,0.00000050,0.00000005,0.00024
 164,-0.00000064,0.00000177,-0.00425161,-0.00000195,0.00014322,0.025099
 64,0.03156690,0.00001720,-0.01479791,0.10756543,0.00006676,-0.10911186
 ,-0.02170412,-0.00001063,0.00937375,-0.00196191,0.00000365,-0.00440384
 ,-0.00254246,0.00000407,-0.00289452,-0.00110082,-0.00000011,-0.0005558
 8,0.00035299,-0.00000003,0.00032039,0.00019634,-0.00000172,0.00057564,
 -0.11245501,-0.00007617,0.12028000,-0.00313581,-0.00000269,-0.00209276
 ,0.00648709,0.00001318,-0.02716117,-0.07310415,-0.00004190,0.06114335,
 -0.00064522,-0.00000034,0.00009085,-0.00656091,-0.00002039,0.03410725,
 -0.00010330,-0.00000011,0.00016065,-0.00433110,-0.00000312,-0.00191823
 ,-0.00015547,0.00000028,-0.00113216,0.00096061,0.00000221,-0.00050904,
 0.07996440,-0.00000256,0.00663353,0.00000368,-0.00000526,0.00552500,-0
 .00000133,-0.00003399,-0.04301650,0.00016433,0.00000150,0.00023826,-0.
 00000039,-0.00001161,0.00705740,0.00001499,-0.00000151,0.00025291,-0.0
 0000046,-0.00000163,0.00808112,0.00000272,0.00000004,-0.00056832,-0.00
 000011,0.00000157,-0.00392414,-0.00000252,0.00005098,0.02664426,-0.003
 87773,0.00000193,-0.00000942,0.00640785,0.00001358,-0.01861484,0.05880
 519,0.00015915,-0.31464201,-0.00020153,-0.00000006,0.00053796,0.002951
 57,0.00000678,-0.00691710,0.00010718,-0.00000001,0.00010578,0.00039084
 ,0.00000445,0.00206011,-0.00003827,-0.00000008,-0.00105793,-0.00024416
 ,-0.00000246,0.00115877,-0.06390143,-0.00017872,0.33634922,0.00628761,
 -0.00000923,0.02742549,-0.00288502,-0.00000381,0.00214265,-0.00127484,
 -0.00000036,-0.00033298,-0.07407859,0.00001394,-0.06497211,0.00058475,
 0.00000008,0.00044161,-0.00846489,0.00001035,-0.03358413,-0.00559151,-
 0.00000538,0.00125669,0.00096724,0.00000126,0.00065239,-0.00013428,-0.
 00000051,0.00111676,0.00018472,0.00000026,0.00004604,0.08361046,0.0000
 0507,0.00222302,0.00001477,-0.00000392,0.00679676,0.00000446,-0.000001
 39,-0.00008342,-0.00000050,0.00001278,-0.03479807,0.00009562,0.0000008
 0,0.00024191,0.00000005,-0.00000384,0.00227761,-0.00000712,-0.00000493
 ,0.00727497,0.00000267,0.00000165,-0.00425423,-0.00000171,-0.00000016,
 0.00032877,0.00000077,0.00000031,-0.00062800,-0.00000021,-0.00000953,0
 .02510028,-0.00602172,0.00000673,-0.01981279,0.00380080,0.00000398,0.0
 0057115,0.00022960,-0.00000001,0.00037361,-0.06511339,0.00009431,-0.31
 818456,-0.00003248,-0.00000002,0.00042814,0.00009342,0.00000306,-0.005
 02041,-0.00072558,0.00000181,0.00170829,0.00027775,-0.00000216,0.00112
 935,0.00000383,0.00000041,-0.00105913,-0.00005764,-0.00000024,-0.00009
 915,0.06802100,-0.00010546,0.33896584,-0.00420863,-0.00000276,-0.00299
 337,0.00000444,0.00000015,-0.00073772,0.00015250,0.00000015,-0.0001039
 9,-0.01863173,-0.00002005,0.02714137,-0.00127961,-0.00000346,-0.002127
 48,-0.15787017,-0.00010117,0.12877778,0.01142156,0.00000617,-0.0118914
 6,-0.00126679,-0.00000047,0.00087914,0.00001018,0.00000016,0.00019002,
 0.00009270,0.00000027,0.00003023,0.00070829,0.00000185,-0.00003600,0.1
 6970607,-0.00000227,0.00663029,0.00000080,0.00000022,0.00023838,0.0000
 0077,-0.00000138,0.00025262,0.00000003,-0.00000590,0.00552451,0.000008
 97,-0.00000208,0.00808402,0.00000180,-0.00010527,-0.04301522,0.0001347
 1,-0.00000518,0.00705636,0.00000929,-0.00000006,-0.00056824,0.00000005
 ,0.00000024,-0.00062749,-0.00000019,0.00000009,-0.00056175,-0.00000029
 ,0.00000180,-0.00392178,-0.00000217,0.00011573,0.02664360,-0.00120789,
 0.00000219,0.00106180,-0.00044492,-0.00000007,-0.00011120,-0.00005077,
 0.00000005,-0.00015007,-0.00642935,-0.00000275,0.00650273,-0.00443695,
 0.00000310,-0.00099092,0.13111832,0.00013367,-0.22988036,0.01926420,0.
 00001870,-0.02489673,-0.00021483,-0.00000020,0.00005345,0.00008642,-0.
 00000026,0.00007536,0.00019800,-0.00000006,-0.00009571,-0.00030144,-0.
 00000255,0.00141093,-0.13798036,-0.00014946,0.24661160,0.01953830,0.00
 002615,-0.04773829,0.02820454,-0.00001881,0.05384340,-0.10053949,-0.00
 001709,-0.03815990,-0.04657004,-0.00002186,0.01285951,-0.16049669,0.00
 007234,-0.10214259,0.03746040,0.00000335,0.03021525,-0.04025119,-0.000
 00468,-0.03560465,0.00040896,0.00000191,-0.00090569,-0.00035023,-0.000
 00067,0.00035711,0.00086679,0.00000519,-0.00196763,-0.00058163,-0.0000
 0123,0.00006932,0.00074528,0.00000086,0.00126170,0.56708243,0.00000438
 ,-0.00022265,-0.00001830,0.00000587,0.00784645,0.00002081,-0.00004475,
 0.00496502,-0.00001589,-0.00001726,0.00121716,0.00000709,0.00007824,-0
 .06759959,0.00009018,0.00001142,-0.00077578,0.00001177,-0.00001999,0.0
 1205783,0.00001395,0.00000055,-0.00074735,-0.00000071,-0.00000100,-0.0
 0002802,-0.00000022,0.00000163,-0.00501864,-0.00000462,-0.00000023,0.0
 0016921,0.00000004,0.00000148,-0.00119740,0.00000081,0.00025194,0.1140
 5654,0.00645769,0.00000652,-0.01145031,0.00981218,0.00000194,0.0134158
 7,-0.01248077,-0.00001093,0.00715389,-0.01170065,-0.00000409,0.0022341
 0,-0.11137953,0.00007781,-0.21413396,0.01569939,0.00000480,0.00469588,
 -0.01715481,0.00004514,-0.05738884,-0.00002206,-0.00000020,-0.00009614
 ,0.00097289,0.00000039,0.00074058,0.00072897,-0.00000330,0.00138913,-0
 .00026620,-0.00000029,0.00007045,-0.00045624,-0.00000168,-0.00128689,-
 0.03814311,-0.00056076,0.80909525,0.00026687,0.00000023,-0.00032919,0.
 00018797,-0.00000031,0.00069248,0.00164703,0.00000207,-0.00056323,-0.0
 0033775,-0.00000018,0.00024064,0.00848241,0.00001524,-0.02247802,0.001
 53025,-0.00000028,-0.00052053,-0.00487171,-0.00000022,-0.00269736,0.00
 000806,0.,0.00002124,-0.00003666,-0.00000021,0.00000677,-0.00028019,-0
 .00000057,0.00079266,-0.00002047,0.00000009,-0.00000021,-0.00011578,0.
 00000036,-0.00044341,-0.06407095,-0.00004429,0.03252809,0.05541189,0.0
 0000100,0.00048077,-0.00000089,-0.00000074,-0.00022113,0.00000084,0.00
 000189,-0.00314014,-0.00000276,-0.00000274,-0.00002973,-0.00000039,-0.
 00000394,0.00059047,0.00000493,0.00000219,0.00202650,0.00000375,-0.000
 00073,0.00355798,-0.00000399,-0.00000003,0.00003939,-0.00000004,0.0000
 0004,0.00001671,0.00000005,0.00000032,0.00025525,0.00000013,0.00000007
 ,-0.00017906,-0.00000005,0.00000056,-0.00069228,-0.00000025,-0.0000415
 9,-0.02600062,0.00024605,0.00004470,0.02074204,-0.00008749,0.00000031,
 0.00009466,-0.00021973,-0.00000030,0.00003320,0.00132059,-0.00000239,0
 .00042874,0.00017339,0.,0.00018914,0.00651299,0.00000692,-0.01177037,0
 .00076040,0.00000252,-0.00075388,-0.00236707,0.00000445,-0.00115068,-0
 .00003026,0.00000001,0.00003176,-0.00008085,-0.00000002,-0.00001578,-0
 .00085430,-0.00000012,0.00038805,-0.00004405,-0.00000016,-0.00002883,-
 0.00019805,-0.00000069,-0.00026093,0.03249589,0.00025954,-0.34483278,-
 0.03575984,-0.00027356,0.36420554,-0.01034450,-0.00001164,0.02059816,-
 0.01056224,0.00000821,-0.02237517,0.02638946,0.00001064,0.00176749,0.0
 2248897,0.00001072,-0.00497624,-0.08796286,-0.00004732,-0.01638623,-0.
 02760494,-0.00000956,-0.01277174,0.00339425,0.00000551,-0.02165918,-0.
 00016166,-0.00000078,0.00037104,-0.00052576,-0.00000002,-0.00047833,0.
 00034628,-0.00000170,0.00031125,-0.00018634,0.00000099,-0.00033481,-0.
 00013546,-0.00000086,-0.00018364,-0.26830123,-0.00023625,0.11374998,0.
 00559157,0.00000550,-0.00340511,0.76490637,-0.00001613,-0.00078880,0.0
 0003287,-0.00001498,0.00044380,-0.00003478,0.00004238,0.00477711,0.000
 01425,0.00003782,0.00044322,-0.00000739,-0.00006301,0.00532496,-0.0000
 2376,-0.00004209,0.00477453,-0.00002433,0.00004504,0.00532379,0.000022
 95,-0.00000029,-0.00006224,0.00000068,0.,-0.00049067,-0.00000059,0.000
 00025,0.00044966,0.00000093,0.00000035,-0.00049035,-0.00000051,-0.0000
 0073,0.00045033,0.00000012,-0.00020847,-0.05700875,0.00016092,-0.00001
 045,-0.00015774,-0.00000082,0.00035136,0.13194773,0.02059249,0.0000243
 7,-0.04434285,0.02230415,-0.00001282,0.04505880,-0.05733632,-0.0000100
 0,-0.01851724,-0.04964631,-0.00002124,0.01201383,0.05374968,-0.0000012
 2,0.03478888,0.04632593,0.00000611,0.03546464,-0.09179519,-0.00002065,
 -0.05655403,0.00037082,0.00000118,-0.00077399,-0.00005481,-0.00000095,
 0.00048494,-0.00058124,0.00000227,-0.00024073,-0.00075848,-0.00000143,
 0.00014508,0.00070864,0.00000080,0.00024098,0.04837583,0.00013405,-0.1
 7333798,0.02586597,0.00002427,-0.00619738,0.09648166,-0.00021249,0.605
 88812,-0.00005561,-0.00000036,0.00034803,-0.00053389,0.00000117,-0.000
 04383,0.00005871,0.00000040,-0.00112678,0.00029896,0.00000107,-0.00019
 520,-0.00408389,-0.00001014,0.00268756,-0.00012337,-0.00000063,-0.0000
 7297,0.00028616,-0.00000368,0.00025933,-0.00002478,-0.00000021,-0.0000
 2205,-0.00011420,-0.00000004,-0.00007183,-0.00000145,-0.00000046,0.000
 03980,-0.00001641,0.00000006,-0.00001175,0.00001085,-0.00000023,-0.000
 05202,-0.01269535,0.00000494,-0.01498030,0.00064424,0.00000168,0.00047
 820,-0.29471183,-0.00008392,-0.10929017,0.30915018,-0.00000051,0.00029
 948,0.00000340,-0.00000246,-0.00139181,-0.00000250,0.00000355,0.000488
 86,-0.00000130,0.00000336,-0.00139227,-0.00000220,-0.00001292,0.006677
 95,0.00000730,-0.00000214,0.00048853,-0.00000180,-0.00000097,0.0066816
 4,0.00000695,-0.00000009,0.00023909,0.00000009,-0.00000010,-0.00004623
 ,-0.00000024,-0.00000017,0.00046913,0.00000024,0.00000008,-0.00004615,
 0.00000004,-0.00000024,0.00046927,0.00000011,-0.00001723,0.00275702,-0
 .00001807,0.00000248,-0.00259346,-0.00000203,-0.00007005,-0.03778072,-
 0.00000326,0.00008859,0.02451495,0.00034799,0.00000056,-0.00063041,0.0
 0049245,-0.00000127,0.00049643,-0.00022345,-0.00000068,0.00086683,-0.0
 0073134,-0.00000075,-0.00033637,0.00386707,0.00000839,-0.00214670,-0.0
 0097661,-0.00000108,0.00104890,-0.00091946,0.00000567,-0.00651657,-0.0
 0002206,0.00000015,0.00001163,0.00006897,0.00000004,0.00005259,-0.0000
 4187,0.00000043,0.00002094,-0.00015255,0.,-0.00004523,0.00002965,0.000
 00017,0.00000863,0.01363603,-0.00000072,0.01273236,-0.00106535,-0.0000
 0231,0.00028590,-0.10928827,-0.00001350,-0.11431385,0.12100834,0.00001
 622,0.10941141,-0.01915418,-0.00002170,0.03839985,-0.01697740,0.000010
 34,-0.03612920,0.04051899,0.00001024,0.01317707,0.05065221,0.00001568,
 -0.00872588,-0.07634075,-0.00004591,0.01264234,-0.06133584,-0.00001203
 ,-0.04481894,-0.29702787,-0.00012173,0.00149889,-0.00034677,-0.0000006
 3,0.00060186,-0.00029020,0.00000027,-0.00050681,-0.00006800,-0.0000007
 9,0.00021504,0.00095152,0.00000140,-0.00010103,0.00056931,0.00000360,0
 .00097425,0.03976434,0.00000475,0.02878818,-0.00469304,-0.00000824,0.0
 0154221,-0.13222644,-0.00004630,0.00140614,0.00176862,0.00000772,-0.02
 692153,0.67337457,-0.00000127,-0.00022281,0.00000498,-0.00000335,0.001
 21708,-0.00000291,0.00000606,-0.00077621,0.00000349,0.00000483,0.00784
 943,0.00000338,-0.00003250,0.01205879,0.00002084,0.00000164,0.00496289
 ,-0.00000246,-0.00013538,-0.06760980,0.00000086,0.00000019,-0.00074776
 ,-0.00000029,-0.00000006,0.00016921,-0.00000003,-0.00000036,-0.0011974
 3,-0.00000040,0.00000091,-0.00002808,0.00000030,0.00000248,-0.00502051
 ,-0.00000266,-0.00003076,0.01153225,0.00005257,-0.00000781,0.00399472,
 0.00000479,-0.00001081,-0.05699994,0.00008564,-0.00000016,0.00276000,-
 0.00000969,0.00036372,0.11405597,-0.01579775,-0.00001680,0.02725422,-0
 .01157528,0.00000813,-0.02736955,0.02770644,0.00001394,0.00164465,0.03
 531350,0.00001868,-0.00904171,-0.00582813,0.00002285,-0.02129305,-0.07
 051010,-0.00001841,-0.03203793,0.01075484,0.00000608,-0.07740644,-0.00
 028178,-0.00000094,0.00066004,-0.00017085,0.00000014,-0.00022096,0.001
 93304,-0.00000088,-0.00047340,-0.00071719,0.00000110,-0.00056090,-0.00
 172167,-0.00000331,0.00168663,0.07288875,0.00006077,-0.04414140,0.0023
 5585,0.00000226,-0.00038118,-0.06397431,0.00006654,-0.30959398,0.00169
 709,-0.00000126,-0.00173402,-0.12606432,-0.00030721,0.70278552,-0.0000
 4019,-0.00000033,0.00016615,0.00017878,0.00000013,-0.00025326,0.000289
 65,-0.00000166,0.00178445,0.00032829,0.00000051,-0.00033537,-0.0051442
 7,-0.00000388,-0.00214165,0.00129355,0.00000173,0.00161117,-0.01139942
 ,-0.00001540,0.02292303,0.00001772,-0.00000004,-0.00003823,-0.00004717
 ,0.00000007,-0.00002201,-0.00051699,0.00000027,0.00013313,-0.00006061,
 0.,-0.00006110,0.00008698,0.00000035,-0.00115730,-0.00021426,-0.000001
 44,-0.00215370,0.00065627,0.00000007,-0.00023692,0.00960636,0.00000918
 ,-0.00671878,0.00014306,0.00000111,0.00089199,-0.19913907,-0.00015737,
 0.14399188,0.20396130,-0.00000079,0.00048074,0.00000186,-0.00000075,-0
 .00002990,-0.00000166,0.00000148,0.00202634,0.00000239,0.00000180,-0.0
 0022105,-0.00000074,-0.00000524,0.00355503,-0.00000204,0.00000041,-0.0
 0313836,-0.00000225,-0.00000072,0.00058769,0.00001125,-0.00000003,0.00
 003936,0.,0.00000002,-0.00017901,-0.00000008,-0.00000017,-0.00069174,-
 0.00000034,-0.00000003,0.00001660,-0.00000004,-0.00000011,0.00025529,-
 0.00000049,0.00000067,0.00399730,0.00000316,-0.00000082,0.00131033,0.0
 0000154,-0.00000393,-0.00015592,0.00000538,0.00000192,-0.00259530,-0.0
 0000162,-0.00016040,-0.02599783,0.00014833,0.00016670,0.02074043,-0.00
 007577,-0.00000004,0.00040156,-0.00018565,0.00000007,-0.00032741,0.000
 50339,0.00000046,0.00048701,0.00057677,0.00000010,-0.00010689,-0.00247
 261,0.00000117,-0.00087765,-0.00027152,-0.00000140,0.00078165,-0.00606
 640,-0.00000599,0.00811362,0.00001327,0.00000002,0.00002208,0.00002182
 ,-0.00000003,-0.00000213,-0.00011227,-0.00000029,0.00014033,0.00002651
 ,-0.00000001,0.00000817,0.00048952,0.00000041,0.00002070,-0.00134094,0
 .00000222,-0.00485920,0.00135344,0.00000195,-0.00026519,0.02255345,0.0
 0001893,-0.01021322,-0.00065144,-0.00000170,0.00078754,0.14402189,0.00
 014879,-0.20977654,-0.15838345,-0.00016466,0.21566558||0.00004300,-0.0
 0000168,-0.00000898,0.00008251,-0.00000346,-0.00002042,0.00003035,0.00
 001839,-0.00004010,-0.00000577,-0.00000030,0.00009223,-0.00004170,0.00
 007857,-0.00004540,-0.00000697,-0.00000881,0.00003450,-0.00008362,-0.0
 0004818,0.00002257,-0.00003130,0.00000041,-0.00001022,-0.00003543,-0.0
 0000171,0.00001442,-0.00000562,-0.00000517,0.00003371,-0.00000215,0.00
 000141,-0.00004013,0.00001802,0.00000639,-0.00002859,-0.00003715,-0.00
 007728,0.00001466,0.00000250,-0.00001174,0.00001210,0.00001872,0.00006
 782,-0.00001827,0.00000064,-0.00000186,-0.00000076,0.00004504,-0.00001
 023,-0.00000718,0.00000892,-0.00000255,-0.00000413|||@


 I DON'T EXACTLY UNDERSTAND WHAT YOU ARE SAYING,
 BUT YOU ARE ABSOLUTELY RIGHT.
     M.S.GORDON, IN A NDSU FACULTY MEETING
 Job cpu time:  0 days  0 hours 12 minutes 36.0 seconds.
 File lengths (MBytes):  RWF=     65 Int=      0 D2E=      0 Chk=      9 Scr=      1
 Normal termination of Gaussian 03 at Wed Sep 23 13:50:23 2020.
