 Entering Link 1 = C:\G03W\l1.exe PID=      6892.
  
 Copyright (c) 1988,1990,1992,1993,1995,1998,2003, Gaussian, Inc.
                  All Rights Reserved.
  
 This is the Gaussian(R) 03 program.  It is based on the
 the Gaussian(R) 98 system (copyright 1998, Gaussian, Inc.),
 the Gaussian(R) 94 system (copyright 1995, Gaussian, Inc.),
 the Gaussian 92(TM) system (copyright 1992, Gaussian, Inc.),
 the Gaussian 90(TM) system (copyright 1990, Gaussian, Inc.),
 the Gaussian 88(TM) system (copyright 1988, Gaussian, Inc.),
 the Gaussian 86(TM) system (copyright 1986, Carnegie Mellon
 University), and the Gaussian 82(TM) system (copyright 1983,
 Carnegie Mellon University). Gaussian is a federally registered
 trademark of Gaussian, Inc.
  
 This software contains proprietary and confidential information,
 including trade secrets, belonging to Gaussian, Inc.
  
 This software is provided under written license and may be
 used, copied, transmitted, or stored only in accord with that
 written license.
  
 The following legend is applicable only to US Government
 contracts under DFARS:
  
                    RESTRICTED RIGHTS LEGEND
  
 Use, duplication or disclosure by the US Government is subject
 to restrictions as set forth in subparagraph (c)(1)(ii) of the
 Rights in Technical Data and Computer Software clause at DFARS
 252.227-7013.
  
 Gaussian, Inc.
 Carnegie Office Park, Building 6, Pittsburgh, PA 15106 USA
  
 The following legend is applicable only to US Government
 contracts under FAR:
  
                    RESTRICTED RIGHTS LEGEND
  
 Use, reproduction and disclosure by the US Government is subject
 to restrictions as set forth in subparagraph (c) of the
 Commercial Computer Software - Restricted Rights clause at FAR
 52.227-19.
  
 Gaussian, Inc.
 Carnegie Office Park, Building 6, Pittsburgh, PA 15106 USA
  
  
 ---------------------------------------------------------------
 Warning -- This program may not be used in any manner that
 competes with the business of Gaussian, Inc. or will provide
 assistance to any competitor of Gaussian, Inc.  The licensee
 of this program is prohibited from giving any competitor of
 Gaussian, Inc. access to this program.  By using this program,
 the user acknowledges that Gaussian, Inc. is engaged in the
 business of creating and licensing software in the field of
 computational chemistry and represents and warrants to the
 licensee that it is not a competitor of Gaussian, Inc. and that
 it will not use this program in any manner prohibited above.
 ---------------------------------------------------------------
  

 Cite this work as:
 Gaussian 03, Revision B.05,
 M. J. Frisch, G. W. Trucks, H. B. Schlegel, G. E. Scuseria, 
 M. A. Robb, J. R. Cheeseman, J. A. Montgomery, Jr., T. Vreven, 
 K. N. Kudin, J. C. Burant, J. M. Millam, S. S. Iyengar, J. Tomasi, 
 V. Barone, B. Mennucci, M. Cossi, G. Scalmani, N. Rega, 
 G. A. Petersson, H. Nakatsuji, M. Hada, M. Ehara, K. Toyota, 
 R. Fukuda, J. Hasegawa, M. Ishida, T. Nakajima, Y. Honda, O. Kitao, 
 H. Nakai, M. Klene, X. Li, J. E. Knox, H. P. Hratchian, J. B. Cross, 
 C. Adamo, J. Jaramillo, R. Gomperts, R. E. Stratmann, O. Yazyev, 
 A. J. Austin, R. Cammi, C. Pomelli, J. W. Ochterski, P. Y. Ayala, 
 K. Morokuma, G. A. Voth, P. Salvador, J. J. Dannenberg, 
 V. G. Zakrzewski, S. Dapprich, A. D. Daniels, M. C. Strain, 
 O. Farkas, D. K. Malick, A. D. Rabuck, K. Raghavachari, 
 J. B. Foresman, J. V. Ortiz, Q. Cui, A. G. Baboul, S. Clifford, 
 J. Cioslowski, B. B. Stefanov, G. Liu, A. Liashenko, P. Piskorz, 
 I. Komaromi, R. L. Martin, D. J. Fox, T. Keith, M. A. Al-Laham, 
 C. Y. Peng, A. Nanayakkara, M. Challacombe, P. M. W. Gill, 
 B. Johnson, W. Chen, M. W. Wong, C. Gonzalez, and J. A. Pople, 
 Gaussian, Inc., Pittsburgh PA, 2003.
 
 **********************************************
 Gaussian 03:  x86-Win32-G03RevB.05  8-Nov-2003
                  23-Sep-2020 
 **********************************************
 %chk=nai_B3LYP6-31Gd.chk
 %mem=6MW
 %nproc=1
 Will use up to    1 processors via shared memory.
 -------------------------------------------
 # opt freq b3lyp/6-31g(d) geom=connectivity
 -------------------------------------------
 1/14=-1,18=20,26=3,38=1,57=2/1,3;
 2/9=110,17=6,18=5,40=1/2;
 3/5=1,6=6,7=1,11=2,16=1,25=1,30=1,74=-5/1,2,3;
 4//1;
 5/5=2,38=5/2;
 6/7=2,8=2,9=2,10=2,28=1/1;
 7//1,2,3,16;
 1/14=-1,18=20/3(1);
 99//99;
 2/9=110/2;
 3/5=1,6=6,7=1,11=2,16=1,25=1,30=1,74=-5/1,2,3;
 4/5=5,16=3/1;
 5/5=2,38=5/2;
 7//1,2,3,16;
 1/14=-1,18=20/3(-5);
 2/9=110/2;
 6/7=2,8=2,9=2,10=2,19=2,28=1/1;
 99/9=1/99;
 -------------------
 Title Card Required
 -------------------
 Symbolic Z-matrix:
 Charge =  0 Multiplicity = 1
 C
 C                    1    B1
 C                    2    B2       1    A1
 C                    3    B3       2    A2       1    D1       0
 C                    4    B4       3    A3       2    D2       0
 C                    5    B5       4    A4       3    D3       0
 H                    3    B6       2    A5       1    D4       0
 H                    1    B7       2    A6       3    D5       0
 H                    2    B8       1    A7       6    D6       0
 C                    3    B9       2    A8       1    D7       0
 C                    4    B10      3    A9       2    D8       0
 H                    5    B11      4    A10      3    D9       0
 H                    6    B12      5    A11      4    D10      0
 C                    11   B13      4    A12      3    D11      0
 C                    10   B14      3    A13      2    D12      0
 H                    11   B15      4    A14      3    D13      0
 H                    14   B16      11   A15      4    D14      0
 H                    15   B17      10   A16      3    D15      0
       Variables:
  B1                    1.3728                   
  B2                    1.42201                  
  B3                    1.41887                  
  B4                    1.42172                  
  B5                    1.37334                  
  B6                    2.1755                   
  B7                    1.1                      
  B8                    1.10033                  
  B9                    1.42203                  
  B10                   1.42208                  
  B11                   1.10021                  
  B12                   1.09995                  
  B13                   1.37286                  
  B14                   1.37294                  
  B15                   1.10035                  
  B16                   1.09996                  
  B17                   1.09995                  
  A1                  120.50995                  
  A2                  119.0959                   
  A3                  119.21033                  
  A4                  120.45591                  
  A5                   95.34833                  
  A6                  120.64768                  
  A7                  120.8832                   
  A8                  121.70036                  
  A9                  119.05963                  
  A10                 118.64414                  
  A11                 120.64565                  
  A12                 120.54905                  
  A13                 120.49677                  
  A14                 118.59132                  
  A15                 120.64917                  
  A16                 120.68504                  
  D1                    0.0171                   
  D2                   -0.00956                  
  D3                   -0.00404                  
  D4                 -179.99357                  
  D5                  179.99516                  
  D6                 -179.99714                  
  D7                 -179.98755                  
  D8                  179.99469                  
  D9                 -179.98783                  
  D10                -180.                       
  D11                   0.                       
  D12                -180.                       
  D13                 180.                       
  D14                 179.98387                  
  D15                 180.                       
 

 GradGradGradGradGradGradGradGradGradGradGradGradGradGradGradGradGradGrad
 Berny optimization.
 Initialization pass.
                           ----------------------------
                           !    Initial Parameters    !
                           ! (Angstroms and Degrees)  !
 --------------------------                            --------------------------
 ! Name  Definition              Value          Derivative Info.                !
 --------------------------------------------------------------------------------
 ! R1    R(1,2)                  1.3728         estimate D2E/DX2                !
 ! R2    R(1,6)                  1.416          estimate D2E/DX2                !
 ! R3    R(1,8)                  1.1            estimate D2E/DX2                !
 ! R4    R(2,3)                  1.422          estimate D2E/DX2                !
 ! R5    R(2,9)                  1.1003         estimate D2E/DX2                !
 ! R6    R(3,4)                  1.4189         estimate D2E/DX2                !
 ! R7    R(3,10)                 1.422          estimate D2E/DX2                !
 ! R8    R(4,5)                  1.4217         estimate D2E/DX2                !
 ! R9    R(4,11)                 1.4221         estimate D2E/DX2                !
 ! R10   R(5,6)                  1.3733         estimate D2E/DX2                !
 ! R11   R(5,12)                 1.1002         estimate D2E/DX2                !
 ! R12   R(6,13)                 1.1            estimate D2E/DX2                !
 ! R13   R(7,10)                 1.1003         estimate D2E/DX2                !
 ! R14   R(10,15)                1.3729         estimate D2E/DX2                !
 ! R15   R(11,14)                1.3729         estimate D2E/DX2                !
 ! R16   R(11,16)                1.1003         estimate D2E/DX2                !
 ! R17   R(14,15)                1.4162         estimate D2E/DX2                !
 ! R18   R(14,17)                1.1            estimate D2E/DX2                !
 ! R19   R(15,18)                1.0999         estimate D2E/DX2                !
 ! A1    A(2,1,6)              120.3763         estimate D2E/DX2                !
 ! A2    A(2,1,8)              120.6477         estimate D2E/DX2                !
 ! A3    A(6,1,8)              118.976          estimate D2E/DX2                !
 ! A4    A(1,2,3)              120.5099         estimate D2E/DX2                !
 ! A5    A(1,2,9)              120.8832         estimate D2E/DX2                !
 ! A6    A(3,2,9)              118.6069         estimate D2E/DX2                !
 ! A7    A(2,3,4)              119.0959         estimate D2E/DX2                !
 ! A8    A(2,3,10)             121.7004         estimate D2E/DX2                !
 ! A9    A(4,3,10)             119.2037         estimate D2E/DX2                !
 ! A10   A(3,4,5)              119.2103         estimate D2E/DX2                !
 ! A11   A(3,4,11)             119.0596         estimate D2E/DX2                !
 ! A12   A(5,4,11)             121.73           estimate D2E/DX2                !
 ! A13   A(4,5,6)              120.4559         estimate D2E/DX2                !
 ! A14   A(4,5,12)             118.6441         estimate D2E/DX2                !
 ! A15   A(6,5,12)             120.8999         estimate D2E/DX2                !
 ! A16   A(1,6,5)              120.3516         estimate D2E/DX2                !
 ! A17   A(1,6,13)             119.0027         estimate D2E/DX2                !
 ! A18   A(5,6,13)             120.6457         estimate D2E/DX2                !
 ! A19   A(3,10,7)             118.6409         estimate D2E/DX2                !
 ! A20   A(3,10,15)            120.4968         estimate D2E/DX2                !
 ! A21   A(7,10,15)            120.8623         estimate D2E/DX2                !
 ! A22   A(4,11,14)            120.5491         estimate D2E/DX2                !
 ! A23   A(4,11,16)            118.5913         estimate D2E/DX2                !
 ! A24   A(14,11,16)           120.8596         estimate D2E/DX2                !
 ! A25   A(11,14,15)           120.3669         estimate D2E/DX2                !
 ! A26   A(11,14,17)           120.6492         estimate D2E/DX2                !
 ! A27   A(15,14,17)           118.9839         estimate D2E/DX2                !
 ! A28   A(10,15,14)           120.3239         estimate D2E/DX2                !
 ! A29   A(10,15,18)           120.685          estimate D2E/DX2                !
 ! A30   A(14,15,18)           118.991          estimate D2E/DX2                !
 ! D1    D(6,1,2,3)             -0.011          estimate D2E/DX2                !
 ! D2    D(6,1,2,9)           -179.9971         estimate D2E/DX2                !
 ! D3    D(8,1,2,3)            179.9952         estimate D2E/DX2                !
 ! D4    D(8,1,2,9)              0.009          estimate D2E/DX2                !
 ! D5    D(2,1,6,5)             -0.0029         estimate D2E/DX2                !
 ! D6    D(2,1,6,13)          -179.9927         estimate D2E/DX2                !
 ! D7    D(8,1,6,5)            179.991          estimate D2E/DX2                !
 ! D8    D(8,1,6,13)             0.0013         estimate D2E/DX2                !
 ! D9    D(1,2,3,4)              0.0171         estimate D2E/DX2                !
 ! D10   D(1,2,3,10)          -179.9875         estimate D2E/DX2                !
 ! D11   D(9,2,3,4)           -179.9964         estimate D2E/DX2                !
 ! D12   D(9,2,3,10)            -0.0011         estimate D2E/DX2                !
 ! D13   D(2,3,4,5)             -0.0096         estimate D2E/DX2                !
 ! D14   D(2,3,4,11)           179.9947         estimate D2E/DX2                !
 ! D15   D(10,3,4,5)           179.995          estimate D2E/DX2                !
 ! D16   D(10,3,4,11)           -0.0008         estimate D2E/DX2                !
 ! D17   D(2,3,10,7)            -0.0135         estimate D2E/DX2                !
 ! D18   D(2,3,10,15)          180.0            estimate D2E/DX2                !
 ! D19   D(4,3,10,7)           179.9818         estimate D2E/DX2                !
 ! D20   D(4,3,10,15)           -0.0046         estimate D2E/DX2                !
 ! D21   D(3,4,5,6)             -0.004          estimate D2E/DX2                !
 ! D22   D(3,4,5,12)          -179.9878         estimate D2E/DX2                !
 ! D23   D(11,4,5,6)           179.9916         estimate D2E/DX2                !
 ! D24   D(11,4,5,12)            0.0078         estimate D2E/DX2                !
 ! D25   D(3,4,11,14)            0.0            estimate D2E/DX2                !
 ! D26   D(3,4,11,16)          180.0            estimate D2E/DX2                !
 ! D27   D(5,4,11,14)         -179.9956         estimate D2E/DX2                !
 ! D28   D(5,4,11,16)            0.0044         estimate D2E/DX2                !
 ! D29   D(4,5,6,1)              0.0104         estimate D2E/DX2                !
 ! D30   D(4,5,6,13)          -180.0            estimate D2E/DX2                !
 ! D31   D(12,5,6,1)           179.9938         estimate D2E/DX2                !
 ! D32   D(12,5,6,13)           -0.0166         estimate D2E/DX2                !
 ! D33   D(3,10,15,14)           0.0108         estimate D2E/DX2                !
 ! D34   D(3,10,15,18)         180.0            estimate D2E/DX2                !
 ! D35   D(7,10,15,14)        -179.9754         estimate D2E/DX2                !
 ! D36   D(7,10,15,18)           0.0138         estimate D2E/DX2                !
 ! D37   D(4,11,14,15)           0.0061         estimate D2E/DX2                !
 ! D38   D(4,11,14,17)         179.9839         estimate D2E/DX2                !
 ! D39   D(16,11,14,15)       -179.9939         estimate D2E/DX2                !
 ! D40   D(16,11,14,17)         -0.0161         estimate D2E/DX2                !
 ! D41   D(11,14,15,10)         -0.0116         estimate D2E/DX2                !
 ! D42   D(11,14,15,18)        179.999          estimate D2E/DX2                !
 ! D43   D(17,14,15,10)       -179.9897         estimate D2E/DX2                !
 ! D44   D(17,14,15,18)          0.0209         estimate D2E/DX2                !
 --------------------------------------------------------------------------------
 Trust Radius=3.00D-01 FncErr=1.00D-07 GrdErr=1.00D-06
 Number of steps in this run= 103 maximum allowed number of steps= 108.
 GradGradGradGradGradGradGradGradGradGradGradGradGradGradGradGradGradGrad

                          Input orientation:                          
 ---------------------------------------------------------------------
 Center     Atomic     Atomic              Coordinates (Angstroms)
 Number     Number      Type              X           Y           Z
 ---------------------------------------------------------------------
    1          6             0        0.000000    0.000000    0.000000
    2          6             0        0.000000    0.000000    1.372801
    3          6             0        1.225121    0.000000    2.094739
    4          6             0        2.448987    0.000370    1.376869
    5          6             0        2.419614    0.000524   -0.044547
    6          6             0        1.221639    0.000234   -0.716052
    7          1             0        0.300156   -0.000243    4.063812
    8          1             0       -0.946346   -0.000080   -0.560731
    9          1             0       -0.944322   -0.000228    1.937590
   10          6             0        1.254664   -0.000263    3.516466
   11          6             0        3.673713    0.000485    2.099619
   12          1             0        3.374070    0.000606   -0.591788
   13          1             0        1.195272    0.000352   -1.815689
   14          6             0        3.673781    0.000242    3.472480
   15          6             0        2.451889   -0.000257    4.188492
   16          1             0        4.618254    0.000772    1.535163
   17          1             0        4.620112    0.000064    4.033172
   18          1             0        2.478354   -0.000460    5.288120
 ---------------------------------------------------------------------
                    Distance matrix (angstroms):
                    1          2          3          4          5
     1  C    0.000000
     2  C    1.372801   0.000000
     3  C    2.426696   1.422011   0.000000
     4  C    2.809503   2.448990   1.418868   0.000000
     5  C    2.420024   2.804177   2.450175   1.421719   0.000000
     6  C    1.416027   2.419857   2.810793   2.426253   1.373340
     7  H    4.074882   2.707699   2.175502   3.440514   4.622847
     8  H    1.099995   2.152700   3.430275   3.909294   3.405310
     9  H    2.155458   1.100332   2.175127   3.439325   3.904476
    10  C    3.733593   2.483844   1.422034   2.450364   3.746722
    11  C    4.231379   3.744921   2.448597   1.422083   2.483991
    12  H    3.425575   3.904351   3.440263   2.175176   1.100209
    13  H    2.173799   3.405164   3.910542   3.429902   2.153127
    14  C    5.055174   4.231468   2.809645   2.427284   3.733954
    15  C    4.853373   3.733614   2.426677   2.811625   4.233162
    16  H    4.866723   4.621107   3.438965   2.175035   2.707305
    17  H    6.132855   5.331323   3.909410   3.430704   4.633571
    18  H    5.840073   4.633785   3.430492   3.911361   5.332991
                    6          7          8          9         10
     6  C    0.000000
     7  H    4.867877   0.000000
     8  H    2.173542   4.789589   0.000000
     9  H    3.425376   2.463645   2.498322   0.000000
    10  C    4.232647   1.100306   4.633355   2.707100   0.000000
    11  C    3.733721   3.903709   5.331267   4.620877   2.803436
    12  H    2.156015   5.578849   4.320528   5.004624   4.622730
    13  H    1.099953   5.947249   2.482226   4.320297   5.332486
    14  C    4.853535   3.425058   6.132892   4.866494   2.419517
    15  C    5.056488   2.155342   5.839788   4.074409   1.372941
    16  H    4.074919   5.004002   5.946221   5.577114   3.903755
    17  H    5.839927   4.320065   7.217299   5.945956   3.404883
    18  H    6.134282   2.498695   6.777730   4.789652   2.153178
                   11         12         13         14         15
    11  C    0.000000
    12  H    2.708036   0.000000
    13  H    4.633822   2.499019   0.000000
    14  C    1.372861   4.075304   5.840183   0.000000
    15  C    2.419968   4.868418   6.134271   1.416225   0.000000
    16  H    1.100349   2.464125   4.790096   2.155279   3.425389
    17  H    2.152742   4.789872   6.777810   1.099963   2.173779
    18  H    3.405205   5.947741   7.218754   2.173843   1.099946
                   16         17         18
    16  H    0.000000
    17  H    2.498010   0.000000
    18  H    4.320169   2.482342   0.000000
 Stoichiometry    C10H8
 Framework group  C1[X(C10H8)]
 Deg. of freedom    48
 Full point group                 C1      NOp   1
 Largest Abelian subgroup         C1      NOp   1
 Largest concise Abelian subgroup C1      NOp   1
                         Standard orientation:                         
 ---------------------------------------------------------------------
 Center     Atomic     Atomic              Coordinates (Angstroms)
 Number     Number      Type              X           Y           Z
 ---------------------------------------------------------------------
    1          6             0        2.426104   -0.708815    0.000057
    2          6             0        1.241200   -1.402057   -0.000136
    3          6             0       -0.000592   -0.709186   -0.000027
    4          6             0        0.000990    0.709681   -0.000085
    5          6             0        1.242689    1.402120   -0.000044
    6          6             0        2.427242    0.707212    0.000135
    7          1             0       -1.233064   -2.501900   -0.000220
    8          1             0        3.387976   -1.242474    0.000053
    9          1             0        1.230581   -2.502338   -0.000150
   10          6             0       -1.242645   -1.401635    0.000041
   11          6             0       -1.241303    1.401800   -0.000090
   12          1             0        1.233044    2.502286    0.000116
   13          1             0        3.389685    1.239752    0.000167
   14          6             0       -2.426293    0.708587   -0.000041
   15          6             0       -2.427269   -0.707638    0.000147
   16          1             0       -1.231082    2.502102   -0.000136
   17          1             0       -3.388124    1.242252    0.000221
   18          1             0       -3.389754   -1.240089    0.000199
 ---------------------------------------------------------------------
 Rotational constants (GHZ):      3.1209900      1.2352643      0.8849914
 Standard basis: 6-31G(d) (6D, 7F)
 There are   166 symmetry adapted basis functions of A   symmetry.
 Integral buffers will be    262144 words long.
 Raffenetti 2 integral format.
 Two-electron integral symmetry is turned on.
   166 basis functions,   312 primitive gaussians,   166 cartesian basis functions
    34 alpha electrons       34 beta electrons
       nuclear repulsion energy       457.5564670332 Hartrees.
 NAtoms=   18 NActive=   18 NUniq=   18 SFac= 1.00D+00 NAtFMM=   60 Big=F
 One-electron integrals computed using PRISM.
 NBasis=   166 RedAO= T  NBF=   166
 NBsUse=   166 1.00D-06 NBFU=   166
 Harris functional with IExCor=  402 diagonalized for initial guess.
 ExpMin= 1.61D-01 ExpMax= 3.05D+03 ExpMxC= 4.57D+02 IAcc=1 IRadAn=         1 AccDes= 1.00D-06
 HarFok:  IExCor= 402 AccDes= 1.00D-06 IRadAn=         1 IDoV=1
 ScaDFX=  1.000000  1.000000  1.000000  1.000000
 Initial guess orbital symmetries:
       Occupied  (A) (A) (A) (A) (A) (A) (A) (A) (A) (A) (A) (A)
                 (A) (A) (A) (A) (A) (A) (A) (A) (A) (A) (A) (A)
                 (A) (A) (A) (A) (A) (A) (A) (A) (A) (A)
       Virtual   (A) (A) (A) (A) (A) (A) (A) (A) (A) (A) (A) (A)
                 (A) (A) (A) (A) (A) (A) (A) (A) (A) (A) (A) (A)
                 (A) (A) (A) (A) (A) (A) (A) (A) (A) (A) (A) (A)
                 (A) (A) (A) (A) (A) (A) (A) (A) (A) (A) (A) (A)
                 (A) (A) (A) (A) (A) (A) (A) (A) (A) (A) (A) (A)
                 (A) (A) (A) (A) (A) (A) (A) (A) (A) (A) (A) (A)
                 (A) (A) (A) (A) (A) (A) (A) (A) (A) (A) (A) (A)
                 (A) (A) (A) (A) (A) (A) (A) (A) (A) (A) (A) (A)
                 (A) (A) (A) (A) (A) (A) (A) (A) (A) (A) (A) (A)
                 (A) (A) (A) (A) (A) (A) (A) (A) (A) (A) (A) (A)
                 (A) (A) (A) (A) (A) (A) (A) (A) (A) (A) (A) (A)
 The electronic state of the initial guess is 1-A.
 Requested convergence on RMS density matrix=1.00D-08 within 128 cycles.
 Requested convergence on MAX density matrix=1.00D-06.
 Requested convergence on             energy=1.00D-06.
 No special actions if energy rises.
 Integral accuracy reduced to 1.0D-05 until final iterations.
 Initial convergence to 1.0D-05 achieved.  Increase integral accuracy.
 SCF Done:  E(RB+HF-LYP) =  -385.891619353     A.U. after   13 cycles
             Convg  =    0.9143D-08             -V/T =  2.0101
             S**2   =   0.0000

 **********************************************************************

            Population analysis using the SCF density.

 **********************************************************************

 Orbital symmetries:
       Occupied  (A) (A) (A) (A) (A) (A) (A) (A) (A) (A) (A) (A)
                 (A) (A) (A) (A) (A) (A) (A) (A) (A) (A) (A) (A)
                 (A) (A) (A) (A) (A) (A) (A) (A) (A) (A)
       Virtual   (A) (A) (A) (A) (A) (A) (A) (A) (A) (A) (A) (A)
                 (A) (A) (A) (A) (A) (A) (A) (A) (A) (A) (A) (A)
                 (A) (A) (A) (A) (A) (A) (A) (A) (A) (A) (A) (A)
                 (A) (A) (A) (A) (A) (A) (A) (A) (A) (A) (A) (A)
                 (A) (A) (A) (A) (A) (A) (A) (A) (A) (A) (A) (A)
                 (A) (A) (A) (A) (A) (A) (A) (A) (A) (A) (A) (A)
                 (A) (A) (A) (A) (A) (A) (A) (A) (A) (A) (A) (A)
                 (A) (A) (A) (A) (A) (A) (A) (A) (A) (A) (A) (A)
                 (A) (A) (A) (A) (A) (A) (A) (A) (A) (A) (A) (A)
                 (A) (A) (A) (A) (A) (A) (A) (A) (A) (A) (A) (A)
                 (A) (A) (A) (A) (A) (A) (A) (A) (A) (A) (A) (A)
 The electronic state is 1-A.
 Alpha  occ. eigenvalues --  -10.19487 -10.19441 -10.19062 -10.19060 -10.19029
 Alpha  occ. eigenvalues --  -10.19027 -10.18980 -10.18976 -10.18964 -10.18962
 Alpha  occ. eigenvalues --   -0.87074  -0.81704  -0.76895  -0.73705  -0.71447
 Alpha  occ. eigenvalues --   -0.62096  -0.60596  -0.59274  -0.50907  -0.50434
 Alpha  occ. eigenvalues --   -0.48969  -0.44420  -0.43655  -0.41324  -0.41188
 Alpha  occ. eigenvalues --   -0.39680  -0.38715  -0.36470  -0.33399  -0.32892
 Alpha  occ. eigenvalues --   -0.32399  -0.28130  -0.24132  -0.21341
 Alpha virt. eigenvalues --   -0.03450  -0.00424   0.03443   0.09058   0.10419
 Alpha virt. eigenvalues --    0.10922   0.11806   0.16318   0.16584   0.17276
 Alpha virt. eigenvalues --    0.17847   0.20241   0.20545   0.24632   0.28701
 Alpha virt. eigenvalues --    0.31089   0.31349   0.32525   0.33148   0.35892
 Alpha virt. eigenvalues --    0.47341   0.49774   0.51316   0.52617   0.52845
 Alpha virt. eigenvalues --    0.52954   0.54757   0.56229   0.56990   0.58500
 Alpha virt. eigenvalues --    0.59131   0.60749   0.61126   0.61230   0.61735
 Alpha virt. eigenvalues --    0.61820   0.62628   0.62883   0.63842   0.67379
 Alpha virt. eigenvalues --    0.69106   0.69158   0.75758   0.81833   0.82280
 Alpha virt. eigenvalues --    0.83019   0.83177   0.83548   0.84581   0.85133
 Alpha virt. eigenvalues --    0.89137   0.89316   0.92594   0.94309   0.94507
 Alpha virt. eigenvalues --    0.98721   1.00103   1.05514   1.05894   1.06741
 Alpha virt. eigenvalues --    1.09264   1.15428   1.19457   1.20422   1.24289
 Alpha virt. eigenvalues --    1.25619   1.27492   1.31359   1.39350   1.41299
 Alpha virt. eigenvalues --    1.43790   1.45565   1.45867   1.48985   1.49073
 Alpha virt. eigenvalues --    1.49595   1.49923   1.51040   1.53487   1.72738
 Alpha virt. eigenvalues --    1.76702   1.78321   1.85867   1.88250   1.89106
 Alpha virt. eigenvalues --    1.90645   1.92171   1.94204   1.94591   1.95626
 Alpha virt. eigenvalues --    1.99924   2.02607   2.04535   2.12298   2.15557
 Alpha virt. eigenvalues --    2.16735   2.19947   2.20662   2.21516   2.28176
 Alpha virt. eigenvalues --    2.28609   2.29991   2.33025   2.33135   2.38454
 Alpha virt. eigenvalues --    2.41420   2.60871   2.61198   2.61932   2.61960
 Alpha virt. eigenvalues --    2.63732   2.68192   2.71591   2.75466   2.78717
 Alpha virt. eigenvalues --    2.83372   2.85660   2.87870   2.94576   3.09508
 Alpha virt. eigenvalues --    3.35711   3.47704   4.08293   4.09257   4.11600
 Alpha virt. eigenvalues --    4.11937   4.14862   4.25813   4.34873   4.39923
 Alpha virt. eigenvalues --    4.51459   4.80319
          Condensed to atoms (all electrons):
              1          2          3          4          5          6
     1  C    4.900719   0.522584  -0.005778  -0.038536  -0.021824   0.496791
     2  C    0.522584   5.098761   0.445062  -0.031837  -0.069051  -0.021680
     3  C   -0.005778   0.445062   4.691988   0.501868  -0.032180  -0.038447
     4  C   -0.038536  -0.031837   0.501868   4.691537   0.445138  -0.005492
     5  C   -0.021824  -0.069051  -0.032180   0.445138   5.099219   0.522251
     6  C    0.496791  -0.021680  -0.038447  -0.005492   0.522251   4.901008
     7  H    0.000211  -0.008213  -0.041036   0.004463  -0.000179   0.000013
     8  H    0.355143  -0.036171   0.002706   0.000986   0.004212  -0.040746
     9  H   -0.044326   0.352415  -0.041047   0.004483   0.000536   0.004370
    10  C    0.008224  -0.088549   0.444936  -0.032079   0.014634  -0.000544
    11  C   -0.000535   0.014666  -0.031722   0.444877  -0.088648   0.008211
    12  H    0.004361   0.000531   0.004469  -0.041011   0.352516  -0.044292
    13  H   -0.040691   0.004211   0.000990   0.002693  -0.036155   0.355100
    14  C    0.000055  -0.000534  -0.038567  -0.005751   0.008226  -0.000369
    15  C   -0.000370   0.008213  -0.005504  -0.038424  -0.000547   0.000055
    16  H    0.000013  -0.000181   0.004489  -0.041065  -0.008214   0.000210
    17  H    0.000000   0.000010   0.000986   0.002706  -0.000188   0.000003
    18  H    0.000003  -0.000189   0.002694   0.000989   0.000010   0.000000
              7          8          9         10         11         12
     1  C    0.000211   0.355143  -0.044326   0.008224  -0.000535   0.004361
     2  C   -0.008213  -0.036171   0.352415  -0.088549   0.014666   0.000531
     3  C   -0.041036   0.002706  -0.041047   0.444936  -0.031722   0.004469
     4  C    0.004463   0.000986   0.004483  -0.032079   0.444877  -0.041011
     5  C   -0.000179   0.004212   0.000536   0.014634  -0.088648   0.352516
     6  C    0.000013  -0.040746   0.004370  -0.000544   0.008211  -0.044292
     7  H    0.600647  -0.000011   0.006604   0.352533   0.000532   0.000003
     8  H   -0.000011   0.595227  -0.005244  -0.000189   0.000010  -0.000179
     9  H    0.006604  -0.005244   0.600821  -0.008208  -0.000181   0.000019
    10  C    0.352533  -0.000189  -0.008208   5.098934  -0.069113  -0.000179
    11  C    0.000532   0.000010  -0.000181  -0.069113   5.098950  -0.008209
    12  H    0.000003  -0.000179   0.000019  -0.000179  -0.008209   0.600507
    13  H    0.000000  -0.004972  -0.000179   0.000010  -0.000189  -0.005213
    14  C    0.004370   0.000000   0.000013  -0.021843   0.522740   0.000209
    15  C   -0.044332   0.000003   0.000210   0.522488  -0.021660   0.000013
    16  H    0.000019   0.000000   0.000003   0.000537   0.352388   0.006606
    17  H   -0.000180   0.000000   0.000000   0.004216  -0.036157  -0.000011
    18  H   -0.005225   0.000000  -0.000011  -0.036133   0.004209   0.000000
             13         14         15         16         17         18
     1  C   -0.040691   0.000055  -0.000370   0.000013   0.000000   0.000003
     2  C    0.004211  -0.000534   0.008213  -0.000181   0.000010  -0.000189
     3  C    0.000990  -0.038567  -0.005504   0.004489   0.000986   0.002694
     4  C    0.002693  -0.005751  -0.038424  -0.041065   0.002706   0.000989
     5  C   -0.036155   0.008226  -0.000547  -0.008214  -0.000188   0.000010
     6  C    0.355100  -0.000369   0.000055   0.000210   0.000003   0.000000
     7  H    0.000000   0.004370  -0.044332   0.000019  -0.000180  -0.005225
     8  H   -0.004972   0.000000   0.000003   0.000000   0.000000   0.000000
     9  H   -0.000179   0.000013   0.000210   0.000003   0.000000  -0.000011
    10  C    0.000010  -0.021843   0.522488   0.000537   0.004216  -0.036133
    11  C   -0.000189   0.522740  -0.021660   0.352388  -0.036157   0.004209
    12  H   -0.005213   0.000209   0.000013   0.006606  -0.000011   0.000000
    13  H    0.595141   0.000003   0.000000  -0.000011   0.000000   0.000000
    14  C    0.000003   4.900785   0.496603  -0.044339   0.355143  -0.040700
    15  C    0.000000   0.496603   4.900905   0.004373  -0.040749   0.355102
    16  H   -0.000011  -0.044339   0.004373   0.600968  -0.005251  -0.000179
    17  H    0.000000   0.355143  -0.040749  -0.005251   0.595205  -0.004962
    18  H    0.000000  -0.040700   0.355102  -0.000179  -0.004962   0.595100
 Mulliken atomic charges:
              1
     1  C   -0.136043
     2  C   -0.190047
     3  C    0.134094
     4  C    0.134456
     5  C   -0.189758
     6  C   -0.136441
     7  H    0.129782
     8  H    0.129224
     9  H    0.129721
    10  C   -0.189676
    11  C   -0.190170
    12  H    0.129861
    13  H    0.129263
    14  C   -0.136043
    15  C   -0.136381
    16  H    0.129635
    17  H    0.129230
    18  H    0.129291
 Sum of Mulliken charges=   0.00000
 Atomic charges with hydrogens summed into heavy atoms:
              1
     1  C   -0.006819
     2  C   -0.060326
     3  C    0.134094
     4  C    0.134456
     5  C   -0.059897
     6  C   -0.007178
     7  H    0.000000
     8  H    0.000000
     9  H    0.000000
    10  C   -0.059894
    11  C   -0.060534
    12  H    0.000000
    13  H    0.000000
    14  C   -0.006813
    15  C   -0.007089
    16  H    0.000000
    17  H    0.000000
    18  H    0.000000
 Sum of Mulliken charges=   0.00000
 Electronic spatial extent (au):  <R**2>=  1289.1419
 Charge=     0.0000 electrons
 Dipole moment (field-independent basis, Debye):
    X=     0.0002    Y=    -0.0003    Z=     0.0001  Tot=     0.0004
 Quadrupole moment (field-independent basis, Debye-Ang):
   XX=   -50.8193   YY=   -51.1506   ZZ=   -62.2398
   XY=     0.0072   XZ=    -0.0003   YZ=     0.0009
 Traceless Quadrupole moment (field-independent basis, Debye-Ang):
   XX=     3.9173   YY=     3.5860   ZZ=    -7.5032
   XY=     0.0072   XZ=    -0.0003   YZ=     0.0009
 Octapole moment (field-independent basis, Debye-Ang**2):
  XXX=    -0.0152  YYY=    -0.0003  ZZZ=     0.0000  XYY=     0.0059
  XXY=    -0.0042  XXZ=     0.0036  XZZ=     0.0004  YZZ=    -0.0006
  YYZ=    -0.0008  XYZ=    -0.0003
 Hexadecapole moment (field-independent basis, Debye-Ang**3):
 XXXX= -1075.8544 YYYY=  -480.5691 ZZZZ=   -64.5778 XXXY=     0.0367
 XXXZ=    -0.0072 YYYX=     0.0501 YYYZ=     0.0058 ZZZX=    -0.0002
 ZZZY=     0.0009 XXYY=  -265.4610 XXZZ=  -230.3734 YYZZ=  -107.2773
 XXYZ=     0.0034 YYXZ=     0.0013 ZZXY=     0.0009
 N-N= 4.575564670332D+02 E-N=-1.808202582648D+03  KE= 3.820313011606D+02
 ***** Axes restored to original set *****
 -------------------------------------------------------------------
 Center     Atomic                   Forces (Hartrees/Bohr)
 Number     Number              X              Y              Z
 -------------------------------------------------------------------
    1          6          -0.008943928    0.000011263   -0.007098477
    2          6          -0.006423585   -0.000022899    0.005642523
    3          6          -0.010131629    0.000014097    0.005518839
    4          6           0.010093458   -0.000002707   -0.005187950
    5          6           0.007348818   -0.000018628   -0.003107511
    6          6          -0.001320754    0.000015112   -0.010994439
    7          1           0.007434502   -0.000014111   -0.003913679
    8          1           0.006900993   -0.000001342    0.005270459
    9          1           0.007005121    0.000004183   -0.004650460
   10          6          -0.007748672    0.000014293    0.002978990
   11          6           0.006581021    0.000007250   -0.005620890
   12          1          -0.007424649    0.000007789    0.003838655
   13          1           0.001198124   -0.000005983    0.008580801
   14          6           0.008807859   -0.000036398    0.007000711
   15          6           0.001759428    0.000016123    0.010952542
   16          1          -0.007004631   -0.000002285    0.004641580
   17          1          -0.006885283    0.000013798   -0.005269587
   18          1          -0.001246194    0.000000448   -0.008582107
 -------------------------------------------------------------------
 Cartesian Forces:  Max     0.010994439 RMS     0.005490292

 GradGradGradGradGradGradGradGradGradGradGradGradGradGradGradGradGradGrad
 Berny optimization.
 Internal  Forces:  Max     0.009160655 RMS     0.002800469
 Search for a local minimum.
 Step number   1 out of a maximum of 103
 All quantities printed in internal units (Hartrees-Bohrs-Radians)
 Second derivative matrix not updated -- first step.
     Eigenvalues ---    0.01806   0.01817   0.01818   0.01995   0.02012
     Eigenvalues ---    0.02032   0.02051   0.02129   0.02130   0.02159
     Eigenvalues ---    0.02159   0.02190   0.02222   0.02287   0.02305
     Eigenvalues ---    0.16000   0.16000   0.16000   0.16000   0.16000
     Eigenvalues ---    0.16000   0.16000   0.16000   0.22000   0.22000
     Eigenvalues ---    0.22333   0.22797   0.24282   0.24714   0.33644
     Eigenvalues ---    0.33645   0.33648   0.33659   0.33683   0.33686
     Eigenvalues ---    0.33687   0.33688   0.37465   0.39658   0.40110
     Eigenvalues ---    0.41032   0.42246   0.42558   0.42923   0.48396
     Eigenvalues ---    0.48613   0.49798   0.498281000.000001000.00000
     Eigenvalues --- 1000.000001000.000001000.000001000.000001000.00000
     Eigenvalues --- 1000.000001000.000001000.000001000.000001000.00000
     Eigenvalues --- 1000.000001000.000001000.000001000.000001000.00000
     Eigenvalues --- 1000.000001000.000001000.000001000.000001000.00000
     Eigenvalues --- 1000.000001000.000001000.000001000.000001000.00000
     Eigenvalues --- 1000.000001000.000001000.000001000.000001000.00000
     Eigenvalues --- 1000.000001000.000001000.000001000.000001000.00000
     Eigenvalues --- 1000.000001000.000001000.000001000.000001000.00000
     Eigenvalues --- 1000.000001000.000001000.00000
 RFO step:  Lambda=-2.12564463D-03.
 Linear search not attempted -- first point.
 Iteration  1 RMS(Cart)=  0.00741865 RMS(Int)=  0.00003139
 Iteration  2 RMS(Cart)=  0.00004511 RMS(Int)=  0.00000127
 Iteration  3 RMS(Cart)=  0.00000000 RMS(Int)=  0.00000127
 Variable       Old X    -DE/DX   Delta X   Delta X   Delta X     New X
                                 (Linear)    (Quad)   (Total)
    R1        2.59422   0.00273   0.00000   0.00527   0.00527   2.59949
    R2        2.67590   0.00191   0.00000   0.00407   0.00407   2.67997
    R3        2.07869  -0.00862   0.00000  -0.02544  -0.02544   2.05325
    R4        2.68721   0.00069   0.00000   0.00183   0.00183   2.68905
    R5        2.07933  -0.00840   0.00000  -0.02481  -0.02481   2.05452
    R6        2.68127   0.00916   0.00000   0.02206   0.02206   2.70333
    R7        2.68725   0.00061   0.00000   0.00159   0.00159   2.68885
    R8        2.68666   0.00082   0.00000   0.00207   0.00207   2.68873
    R9        2.68735   0.00070   0.00000   0.00183   0.00183   2.68917
   R10        2.59524   0.00231   0.00000   0.00440   0.00440   2.59964
   R11        2.07909  -0.00835   0.00000  -0.02465  -0.02465   2.05444
   R12        2.07861  -0.00861   0.00000  -0.02539  -0.02539   2.05322
   R13        2.07928  -0.00840   0.00000  -0.02480  -0.02480   2.05448
   R14        2.59448   0.00262   0.00000   0.00501   0.00501   2.59950
   R15        2.59433   0.00260   0.00000   0.00499   0.00499   2.59932
   R16        2.07936  -0.00839   0.00000  -0.02479  -0.02479   2.05457
   R17        2.67628   0.00185   0.00000   0.00396   0.00395   2.68023
   R18        2.07863  -0.00861   0.00000  -0.02540  -0.02540   2.05323
   R19        2.07860  -0.00861   0.00000  -0.02540  -0.02540   2.05320
    A1        2.10096  -0.00004   0.00000  -0.00115  -0.00115   2.09981
    A2        2.10570  -0.00104   0.00000  -0.00594  -0.00594   2.09976
    A3        2.07652   0.00108   0.00000   0.00709   0.00709   2.08362
    A4        2.10330   0.00101   0.00000   0.00464   0.00464   2.10794
    A5        2.10981  -0.00092   0.00000  -0.00486  -0.00486   2.10495
    A6        2.07008  -0.00010   0.00000   0.00021   0.00022   2.07030
    A7        2.07862  -0.00095   0.00000  -0.00327  -0.00327   2.07534
    A8        2.12407   0.00227   0.00000   0.00810   0.00810   2.13217
    A9        2.08050  -0.00132   0.00000  -0.00483  -0.00483   2.07567
   A10        2.08061  -0.00134   0.00000  -0.00495  -0.00494   2.07567
   A11        2.07798  -0.00082   0.00000  -0.00277  -0.00277   2.07521
   A12        2.12459   0.00216   0.00000   0.00772   0.00771   2.13230
   A13        2.10235   0.00125   0.00000   0.00550   0.00550   2.10785
   A14        2.07073  -0.00025   0.00000  -0.00042  -0.00042   2.07031
   A15        2.11010  -0.00100   0.00000  -0.00508  -0.00508   2.10502
   A16        2.10053   0.00007   0.00000  -0.00077  -0.00077   2.09976
   A17        2.07699   0.00100   0.00000   0.00674   0.00675   2.08373
   A18        2.10566  -0.00106   0.00000  -0.00597  -0.00597   2.09969
   A19        2.07068  -0.00023   0.00000  -0.00049  -0.00050   2.07018
   A20        2.10307   0.00110   0.00000   0.00488   0.00488   2.10795
   A21        2.10944  -0.00086   0.00000  -0.00438  -0.00439   2.10506
   A22        2.10398   0.00091   0.00000   0.00411   0.00411   2.10809
   A23        2.06981  -0.00005   0.00000   0.00045   0.00045   2.07026
   A24        2.10940  -0.00086   0.00000  -0.00456  -0.00456   2.10483
   A25        2.10080  -0.00001   0.00000  -0.00103  -0.00104   2.09976
   A26        2.10573  -0.00106   0.00000  -0.00605  -0.00605   2.09968
   A27        2.07666   0.00107   0.00000   0.00708   0.00708   2.08374
   A28        2.10005   0.00014   0.00000  -0.00036  -0.00036   2.09969
   A29        2.10635  -0.00115   0.00000  -0.00648  -0.00648   2.09987
   A30        2.07679   0.00101   0.00000   0.00684   0.00684   2.08363
    D1       -0.00019   0.00001   0.00000   0.00022   0.00022   0.00003
    D2       -3.14154   0.00000   0.00000  -0.00004  -0.00004  -3.14159
    D3        3.14151   0.00000   0.00000   0.00012   0.00012  -3.14156
    D4        0.00016   0.00000   0.00000  -0.00015  -0.00015   0.00001
    D5       -0.00005   0.00000   0.00000   0.00005   0.00005   0.00000
    D6       -3.14146   0.00000   0.00000  -0.00013  -0.00013   3.14159
    D7        3.14144   0.00000   0.00000   0.00015   0.00015   3.14159
    D8        0.00002   0.00000   0.00000  -0.00003  -0.00003   0.00000
    D9        0.00030  -0.00001   0.00000  -0.00033  -0.00033  -0.00004
   D10       -3.14138  -0.00001   0.00000  -0.00022  -0.00022   3.14159
   D11       -3.14153   0.00000   0.00000  -0.00007  -0.00007   3.14158
   D12       -0.00002   0.00000   0.00000   0.00004   0.00004   0.00002
   D13       -0.00017   0.00000   0.00000   0.00018   0.00018   0.00002
   D14        3.14150   0.00000   0.00000   0.00013   0.00013  -3.14156
   D15        3.14150   0.00000   0.00000   0.00007   0.00007   3.14158
   D16       -0.00001   0.00000   0.00000   0.00002   0.00002   0.00001
   D17       -0.00024   0.00000   0.00000   0.00017   0.00017  -0.00007
   D18        3.14159   0.00000   0.00000  -0.00004  -0.00004   3.14155
   D19        3.14128   0.00001   0.00000   0.00028   0.00028   3.14155
   D20       -0.00008   0.00000   0.00000   0.00007   0.00007  -0.00001
   D21       -0.00007   0.00000   0.00000   0.00008   0.00008   0.00001
   D22       -3.14138   0.00000   0.00000  -0.00019  -0.00019  -3.14157
   D23        3.14145   0.00000   0.00000   0.00013   0.00013   3.14158
   D24        0.00014   0.00000   0.00000  -0.00013  -0.00013   0.00000
   D25        0.00000   0.00000   0.00000   0.00002   0.00002   0.00002
   D26        3.14159   0.00000   0.00000   0.00005   0.00005  -3.14155
   D27       -3.14152   0.00000   0.00000  -0.00003  -0.00003  -3.14155
   D28        0.00008   0.00000   0.00000  -0.00001  -0.00001   0.00007
   D29        0.00018   0.00000   0.00000  -0.00020  -0.00020  -0.00002
   D30       -3.14159   0.00000   0.00000  -0.00002  -0.00002   3.14157
   D31        3.14149   0.00000   0.00000   0.00008   0.00008   3.14156
   D32       -0.00029   0.00001   0.00000   0.00026   0.00025  -0.00003
   D33        0.00019   0.00000   0.00000  -0.00020  -0.00020  -0.00001
   D34        3.14159   0.00000   0.00000   0.00002   0.00002  -3.14158
   D35       -3.14116  -0.00001   0.00000  -0.00041  -0.00041  -3.14158
   D36        0.00024   0.00000   0.00000  -0.00020  -0.00020   0.00004
   D37        0.00011   0.00000   0.00000  -0.00015  -0.00015  -0.00005
   D38        3.14131   0.00001   0.00000   0.00023   0.00023   3.14154
   D39       -3.14149   0.00000   0.00000  -0.00018  -0.00018   3.14152
   D40       -0.00028   0.00001   0.00000   0.00021   0.00021  -0.00007
   D41       -0.00020   0.00001   0.00000   0.00024   0.00024   0.00004
   D42        3.14158   0.00000   0.00000   0.00003   0.00003  -3.14158
   D43       -3.14141   0.00000   0.00000  -0.00013  -0.00014  -3.14155
   D44        0.00036  -0.00001   0.00000  -0.00034  -0.00035   0.00002
         Item               Value     Threshold  Converged?
 Maximum Force            0.009161     0.000450     NO 
 RMS     Force            0.002800     0.000300     NO 
 Maximum Displacement     0.027356     0.001800     NO 
 RMS     Displacement     0.007405     0.001200     NO 
 Predicted change in Energy=-1.069601D-03
 GradGradGradGradGradGradGradGradGradGradGradGradGradGradGradGradGradGrad

                          Input orientation:                          
 ---------------------------------------------------------------------
 Center     Atomic     Atomic              Coordinates (Angstroms)
 Number     Number      Type              X           Y           Z
 ---------------------------------------------------------------------
    1          6             0       -0.004422    0.000055   -0.005167
    2          6             0       -0.003378   -0.000135    1.370422
    3          6             0        1.219766   -0.000005    2.097606
    4          6             0        2.454143    0.000282    1.374579
    5          6             0        2.418579    0.000447   -0.047789
    6          6             0        1.219355    0.000347   -0.721830
    7          1             0        0.314222   -0.000370    4.064363
    8          1             0       -0.942876   -0.000014   -0.552758
    9          1             0       -0.938712   -0.000364    1.924647
   10          6             0        1.255327   -0.000189    3.520037
   11          6             0        3.677252    0.000366    2.101954
   12          1             0        3.359594    0.000642   -0.592228
   13          1             0        1.201062    0.000493   -1.808193
   14          6             0        3.678332    0.000147    3.477456
   15          6             0        2.454419   -0.000110    4.194158
   16          1             0        4.612659    0.000628    1.547805
   17          1             0        4.616835    0.000165    4.024945
   18          1             0        2.472801   -0.000267    5.280510
 ---------------------------------------------------------------------
                    Distance matrix (angstroms):
                    1          2          3          4          5
     1  C    0.000000
     2  C    1.375590   0.000000
     3  C    2.433165   1.422982   0.000000
     4  C    2.819262   2.457524   1.430543   0.000000
     5  C    2.423376   2.806635   2.457615   1.422813   0.000000
     6  C    1.418181   2.423344   2.819436   2.433030   1.375670
     7  H    4.081986   2.712598   2.165212   3.437179   4.619320
     8  H    1.086532   2.140393   3.420738   3.905684   3.399172
     9  H    2.144080   1.087205   2.165397   3.437156   3.893830
    10  C    3.743532   2.491021   1.422876   2.457671   3.752671
    11  C    4.242014   3.752622   2.457490   1.423050   2.491115
    12  H    3.414856   3.893787   3.437160   2.165219   1.087163
    13  H    2.168893   3.399158   3.905844   3.420563   2.140414
    14  C    5.068663   4.242002   2.819314   2.433255   3.743572
    15  C    4.866234   3.743561   2.433084   2.819579   4.242099
    16  H    4.871258   4.619444   3.437151   2.165456   2.712915
    17  H    6.131706   5.328495   3.905728   3.420771   4.628120
    18  H    5.837380   4.628201   3.420669   3.905975   5.328575
                    6          7          8          9         10
     6  C    0.000000
     7  H    4.871028   0.000000
     8  H    2.168831   4.785196   0.000000
     9  H    3.414834   2.479563   2.477409   0.000000
    10  C    4.242020   1.087184   4.628149   2.712763   0.000000
    11  C    3.743663   3.893715   5.328516   4.619368   2.806542
    12  H    2.144159   5.564003   4.302651   4.980973   4.619379
    13  H    1.086517   5.939142   2.484469   4.302642   5.328507
    14  C    4.866269   3.414923   6.131736   4.871172   2.423379
    15  C    5.068759   2.144129   5.837365   4.082159   1.375594
    16  H    4.082371   4.980926   5.939388   5.564147   3.893762
    17  H    5.837357   4.302793   7.201788   5.939306   3.399215
    18  H    6.131819   2.477595   6.759724   4.785419   2.140445
                   11         12         13         14         15
    11  C    0.000000
    12  H    2.712844   0.000000
    13  H    4.628258   2.477465   0.000000
    14  C    1.375502   4.082147   5.837376   0.000000
    15  C    2.423352   4.871225   6.131813   1.418317   0.000000
    16  H    1.087230   2.479902   4.785574   2.143950   3.414848
    17  H    2.140259   4.785284   6.759660   1.086523   2.169026
    18  H    3.399105   5.939314   7.201877   2.168942   1.086507
                   16         17         18
    16  H    0.000000
    17  H    2.477144   0.000000
    18  H    4.302567   2.484618   0.000000
 Stoichiometry    C10H8
 Framework group  C1[X(C10H8)]
 Deg. of freedom    48
 Full point group                 C1      NOp   1
 Largest Abelian subgroup         C1      NOp   1
 Largest concise Abelian subgroup C1      NOp   1
                         Standard orientation:                         
 ---------------------------------------------------------------------
 Center     Atomic     Atomic              Coordinates (Angstroms)
 Number     Number      Type              X           Y           Z
 ---------------------------------------------------------------------
    1          6             0        2.433087   -0.709122    0.000010
    2          6             0        1.245499   -1.403299    0.000019
    3          6             0       -0.000070   -0.715233   -0.000018
    4          6             0        0.000139    0.715310   -0.000019
    5          6             0        1.245538    1.403336   -0.000002
    6          6             0        2.433161    0.709059    0.000003
    7          1             0       -1.239710   -2.490461   -0.000053
    8          1             0        3.379825   -1.242262    0.000007
    9          1             0        1.239852   -2.490490    0.000030
   10          6             0       -1.245522   -1.403293   -0.000017
   11          6             0       -1.245577    1.403249   -0.000010
   12          1             0        1.239870    2.490484    0.000021
   13          1             0        3.379878    1.242207   -0.000003
   14          6             0       -2.433108    0.709147    0.000027
   15          6             0       -2.433147   -0.709170    0.000000
   16          1             0       -1.240032    2.490465   -0.000055
   17          1             0       -3.379782    1.242382    0.000081
   18          1             0       -3.379899   -1.242235    0.000016
 ---------------------------------------------------------------------
 Rotational constants (GHZ):      3.1164606      1.2299977      0.8819225
 Standard basis: 6-31G(d) (6D, 7F)
 There are   166 symmetry adapted basis functions of A   symmetry.
 Integral buffers will be    262144 words long.
 Raffenetti 2 integral format.
 Two-electron integral symmetry is turned on.
   166 basis functions,   312 primitive gaussians,   166 cartesian basis functions
    34 alpha electrons       34 beta electrons
       nuclear repulsion energy       457.1682625247 Hartrees.
 NAtoms=   18 NActive=   18 NUniq=   18 SFac= 1.00D+00 NAtFMM=   60 Big=F
 One-electron integrals computed using PRISM.
 NBasis=   166 RedAO= T  NBF=   166
 NBsUse=   166 1.00D-06 NBFU=   166
 Initial guess read from the read-write file:
 Initial guess orbital symmetries:
       Occupied  (A) (A) (A) (A) (A) (A) (A) (A) (A) (A) (A) (A)
                 (A) (A) (A) (A) (A) (A) (A) (A) (A) (A) (A) (A)
                 (A) (A) (A) (A) (A) (A) (A) (A) (A) (A)
       Virtual   (A) (A) (A) (A) (A) (A) (A) (A) (A) (A) (A) (A)
                 (A) (A) (A) (A) (A) (A) (A) (A) (A) (A) (A) (A)
                 (A) (A) (A) (A) (A) (A) (A) (A) (A) (A) (A) (A)
                 (A) (A) (A) (A) (A) (A) (A) (A) (A) (A) (A) (A)
                 (A) (A) (A) (A) (A) (A) (A) (A) (A) (A) (A) (A)
                 (A) (A) (A) (A) (A) (A) (A) (A) (A) (A) (A) (A)
                 (A) (A) (A) (A) (A) (A) (A) (A) (A) (A) (A) (A)
                 (A) (A) (A) (A) (A) (A) (A) (A) (A) (A) (A) (A)
                 (A) (A) (A) (A) (A) (A) (A) (A) (A) (A) (A) (A)
                 (A) (A) (A) (A) (A) (A) (A) (A) (A) (A) (A) (A)
                 (A) (A) (A) (A) (A) (A) (A) (A) (A) (A) (A) (A)
 Harris functional with IExCor=  402 diagonalized for initial guess.
 ExpMin= 1.61D-01 ExpMax= 3.05D+03 ExpMxC= 4.57D+02 IAcc=1 IRadAn=         1 AccDes= 1.00D-06
 HarFok:  IExCor= 402 AccDes= 1.00D-06 IRadAn=         1 IDoV=1
 ScaDFX=  1.000000  1.000000  1.000000  1.000000
 Requested convergence on RMS density matrix=1.00D-08 within 128 cycles.
 Requested convergence on MAX density matrix=1.00D-06.
 Requested convergence on             energy=1.00D-06.
 No special actions if energy rises.
 Integral accuracy reduced to 1.0D-05 until final iterations.
 Initial convergence to 1.0D-05 achieved.  Increase integral accuracy.
 SCF Done:  E(RB+HF-LYP) =  -385.892704144     A.U. after   12 cycles
             Convg  =    0.3649D-08             -V/T =  2.0099
             S**2   =   0.0000
 ***** Axes restored to original set *****
 -------------------------------------------------------------------
 Center     Atomic                   Forces (Hartrees/Bohr)
 Number     Number              X              Y              Z
 -------------------------------------------------------------------
    1          6           0.000661985    0.000000303   -0.001029098
    2          6           0.001444516    0.000003650    0.000892323
    3          6          -0.002495392   -0.000004264    0.001313191
    4          6           0.002509127   -0.000000062   -0.001257843
    5          6          -0.000028250    0.000000127    0.001595010
    6          6          -0.001144347    0.000000444    0.000115413
    7          1          -0.000150825   -0.000001361    0.000335700
    8          1          -0.000312656   -0.000000885    0.000249650
    9          1          -0.000348820   -0.000000135   -0.000029666
   10          6          -0.000025275    0.000003121   -0.001613801
   11          6          -0.001422827    0.000001026   -0.000984727
   12          1           0.000164813    0.000001059   -0.000336914
   13          1           0.000360600   -0.000000583   -0.000158495
   14          6          -0.000744622    0.000000658    0.001092674
   15          6           0.001264038   -0.000002920   -0.000142875
   16          1           0.000333728   -0.000002483    0.000028889
   17          1           0.000308497    0.000001930   -0.000234022
   18          1          -0.000374289    0.000000375    0.000164592
 -------------------------------------------------------------------
 Cartesian Forces:  Max     0.002509127 RMS     0.000795662

 GradGradGradGradGradGradGradGradGradGradGradGradGradGradGradGradGradGrad
 Berny optimization.
 Internal  Forces:  Max     0.001458282 RMS     0.000333336
 Search for a local minimum.
 Step number   2 out of a maximum of 103
 All quantities printed in internal units (Hartrees-Bohrs-Radians)
 Update second derivatives using D2CorX and points  1  2
 Trust test= 1.01D+00 RLast= 7.99D-02 DXMaxT set to 3.00D-01
     Eigenvalues ---    0.01806   0.01817   0.01818   0.01995   0.02012
     Eigenvalues ---    0.02031   0.02051   0.02129   0.02129   0.02157
     Eigenvalues ---    0.02157   0.02190   0.02222   0.02286   0.02304
     Eigenvalues ---    0.15592   0.16000   0.16000   0.16000   0.16000
     Eigenvalues ---    0.16000   0.16000   0.16002   0.22000   0.22000
     Eigenvalues ---    0.22332   0.22542   0.24271   0.24710   0.33611
     Eigenvalues ---    0.33644   0.33647   0.33655   0.33684   0.33687
     Eigenvalues ---    0.33688   0.34481   0.37280   0.39658   0.40116
     Eigenvalues ---    0.41049   0.42166   0.42557   0.44055   0.48401
     Eigenvalues ---    0.48621   0.49396   0.498151000.000001000.00000
     Eigenvalues --- 1000.000001000.000001000.000001000.000001000.00000
     Eigenvalues --- 1000.000001000.000001000.000001000.000001000.00000
     Eigenvalues --- 1000.000001000.000001000.000001000.000001000.00000
     Eigenvalues --- 1000.000001000.000001000.000001000.000001000.00000
     Eigenvalues --- 1000.000001000.000001000.000001000.000001000.00000
     Eigenvalues --- 1000.000001000.000001000.000001000.000001000.00000
     Eigenvalues --- 1000.000001000.000001000.000001000.000001000.00000
     Eigenvalues --- 1000.000001000.000001000.000001000.000001000.00000
     Eigenvalues --- 1000.000001000.000001000.00000
 RFO step:  Lambda=-3.15907000D-05.
 Quartic linear search produced a step of  0.01101.
 Iteration  1 RMS(Cart)=  0.00116238 RMS(Int)=  0.00000161
 Iteration  2 RMS(Cart)=  0.00000182 RMS(Int)=  0.00000011
 Iteration  3 RMS(Cart)=  0.00000000 RMS(Int)=  0.00000011
 Variable       Old X    -DE/DX   Delta X   Delta X   Delta X     New X
                                 (Linear)    (Quad)   (Total)
    R1        2.59949   0.00051   0.00006   0.00104   0.00110   2.60059
    R2        2.67997  -0.00051   0.00004  -0.00121  -0.00117   2.67880
    R3        2.05325   0.00014  -0.00028   0.00035   0.00007   2.05331
    R4        2.68905  -0.00104   0.00002  -0.00248  -0.00246   2.68658
    R5        2.05452   0.00028  -0.00027   0.00077   0.00050   2.05502
    R6        2.70333   0.00146   0.00024   0.00358   0.00383   2.70716
    R7        2.68885  -0.00096   0.00002  -0.00229  -0.00227   2.68658
    R8        2.68873  -0.00094   0.00002  -0.00224  -0.00222   2.68651
    R9        2.68917  -0.00107   0.00002  -0.00256  -0.00254   2.68664
   R10        2.59964   0.00045   0.00005   0.00091   0.00096   2.60060
   R11        2.05444   0.00031  -0.00027   0.00085   0.00058   2.05502
   R12        2.05322   0.00015  -0.00028   0.00037   0.00009   2.05331
   R13        2.05448   0.00030  -0.00027   0.00081   0.00054   2.05502
   R14        2.59950   0.00049   0.00006   0.00098   0.00104   2.60053
   R15        2.59932   0.00057   0.00005   0.00115   0.00120   2.60053
   R16        2.05457   0.00027  -0.00027   0.00073   0.00046   2.05503
   R17        2.68023  -0.00058   0.00004  -0.00138  -0.00134   2.67889
   R18        2.05323   0.00015  -0.00028   0.00036   0.00008   2.05331
   R19        2.05320   0.00016  -0.00028   0.00039   0.00011   2.05331
    A1        2.09981  -0.00006  -0.00001  -0.00036  -0.00037   2.09944
    A2        2.09976  -0.00035  -0.00007  -0.00226  -0.00232   2.09743
    A3        2.08362   0.00041   0.00008   0.00262   0.00270   2.08631
    A4        2.10794   0.00021   0.00005   0.00097   0.00102   2.10896
    A5        2.10495  -0.00032  -0.00005  -0.00181  -0.00187   2.10309
    A6        2.07030   0.00010   0.00000   0.00084   0.00084   2.07114
    A7        2.07534  -0.00014  -0.00004  -0.00054  -0.00058   2.07476
    A8        2.13217   0.00033   0.00009   0.00131   0.00140   2.13358
    A9        2.07567  -0.00019  -0.00005  -0.00077  -0.00082   2.07485
   A10        2.07567  -0.00019  -0.00005  -0.00077  -0.00082   2.07485
   A11        2.07521  -0.00012  -0.00003  -0.00046  -0.00049   2.07473
   A12        2.13230   0.00031   0.00008   0.00122   0.00131   2.13361
   A13        2.10785   0.00023   0.00006   0.00103   0.00110   2.10895
   A14        2.07031   0.00010   0.00000   0.00085   0.00084   2.07115
   A15        2.10502  -0.00033  -0.00006  -0.00188  -0.00194   2.10309
   A16        2.09976  -0.00005  -0.00001  -0.00033  -0.00034   2.09942
   A17        2.08373   0.00040   0.00007   0.00254   0.00262   2.08635
   A18        2.09969  -0.00035  -0.00007  -0.00221  -0.00227   2.09742
   A19        2.07018   0.00011  -0.00001   0.00092   0.00091   2.07109
   A20        2.10795   0.00021   0.00005   0.00097   0.00103   2.10897
   A21        2.10506  -0.00033  -0.00005  -0.00189  -0.00194   2.10312
   A22        2.10809   0.00019   0.00005   0.00085   0.00090   2.10899
   A23        2.07026   0.00011   0.00000   0.00085   0.00085   2.07111
   A24        2.10483  -0.00029  -0.00005  -0.00170  -0.00175   2.10309
   A25        2.09976  -0.00005  -0.00001  -0.00031  -0.00032   2.09945
   A26        2.09968  -0.00034  -0.00007  -0.00219  -0.00225   2.09743
   A27        2.08374   0.00039   0.00008   0.00249   0.00257   2.08631
   A28        2.09969  -0.00004   0.00000  -0.00029  -0.00030   2.09939
   A29        2.09987  -0.00037  -0.00007  -0.00232  -0.00239   2.09748
   A30        2.08363   0.00041   0.00008   0.00261   0.00269   2.08631
    D1        0.00003   0.00000   0.00000  -0.00004  -0.00004  -0.00001
    D2       -3.14159   0.00000   0.00000   0.00000   0.00000  -3.14159
    D3       -3.14156   0.00000   0.00000  -0.00004  -0.00004   3.14159
    D4        0.00001   0.00000   0.00000  -0.00001  -0.00001   0.00000
    D5        0.00000   0.00000   0.00000   0.00000   0.00001   0.00000
    D6        3.14159   0.00000   0.00000   0.00000   0.00000  -3.14159
    D7        3.14159   0.00000   0.00000   0.00001   0.00001  -3.14159
    D8        0.00000   0.00000   0.00000   0.00001   0.00001   0.00000
    D9       -0.00004   0.00000   0.00000   0.00004   0.00004   0.00000
   D10        3.14159   0.00000   0.00000   0.00001   0.00001  -3.14159
   D11        3.14158   0.00000   0.00000   0.00001   0.00001   3.14159
   D12        0.00002   0.00000   0.00000  -0.00003  -0.00003  -0.00001
   D13        0.00002   0.00000   0.00000  -0.00002  -0.00002   0.00000
   D14       -3.14156   0.00000   0.00000  -0.00004  -0.00004  -3.14159
   D15        3.14158   0.00000   0.00000   0.00002   0.00002  -3.14159
   D16        0.00001   0.00000   0.00000   0.00000   0.00000   0.00000
   D17       -0.00007   0.00000   0.00000   0.00006   0.00006  -0.00001
   D18        3.14155   0.00000   0.00000   0.00004   0.00004   3.14159
   D19        3.14155   0.00000   0.00000   0.00002   0.00003   3.14158
   D20       -0.00001   0.00000   0.00000   0.00001   0.00001  -0.00001
   D21        0.00001   0.00000   0.00000  -0.00002  -0.00002   0.00000
   D22       -3.14157   0.00000   0.00000  -0.00002  -0.00002  -3.14159
   D23        3.14158   0.00000   0.00000   0.00000   0.00001   3.14159
   D24        0.00000   0.00000   0.00000   0.00000   0.00000   0.00000
   D25        0.00002   0.00000   0.00000  -0.00003  -0.00002   0.00000
   D26       -3.14155   0.00000   0.00000  -0.00004  -0.00004  -3.14158
   D27       -3.14155   0.00000   0.00000  -0.00005  -0.00005   3.14159
   D28        0.00007   0.00000   0.00000  -0.00006  -0.00006   0.00001
   D29       -0.00002   0.00000   0.00000   0.00002   0.00002   0.00000
   D30        3.14157   0.00000   0.00000   0.00003   0.00002  -3.14159
   D31        3.14156   0.00000   0.00000   0.00003   0.00003   3.14159
   D32       -0.00003   0.00000   0.00000   0.00003   0.00003   0.00000
   D33       -0.00001   0.00000   0.00000   0.00002   0.00002   0.00001
   D34       -3.14158   0.00000   0.00000  -0.00002  -0.00002  -3.14159
   D35       -3.14158   0.00000   0.00000   0.00000   0.00000  -3.14158
   D36        0.00004   0.00000   0.00000  -0.00003  -0.00004   0.00001
   D37       -0.00005   0.00000   0.00000   0.00005   0.00005   0.00000
   D38        3.14154   0.00000   0.00000   0.00004   0.00005   3.14159
   D39        3.14152   0.00000   0.00000   0.00006   0.00006   3.14158
   D40       -0.00007   0.00000   0.00000   0.00005   0.00006  -0.00002
   D41        0.00004   0.00000   0.00000  -0.00005  -0.00005  -0.00001
   D42       -3.14158   0.00000   0.00000  -0.00001  -0.00001  -3.14159
   D43       -3.14155   0.00000   0.00000  -0.00004  -0.00004  -3.14159
   D44        0.00002   0.00000   0.00000  -0.00001  -0.00001   0.00001
         Item               Value     Threshold  Converged?
 Maximum Force            0.001458     0.000450     NO 
 RMS     Force            0.000333     0.000300     NO 
 Maximum Displacement     0.004910     0.001800     NO 
 RMS     Displacement     0.001163     0.001200     YES
 Predicted change in Energy=-1.594767D-05
 GradGradGradGradGradGradGradGradGradGradGradGradGradGradGradGradGradGrad

                          Input orientation:                          
 ---------------------------------------------------------------------
 Center     Atomic     Atomic              Coordinates (Angstroms)
 Number     Number      Type              X           Y           Z
 ---------------------------------------------------------------------
    1          6             0       -0.004191    0.000066   -0.005436
    2          6             0       -0.002679   -0.000112    1.370733
    3          6             0        1.218849   -0.000023    2.098084
    4          6             0        2.455047    0.000262    1.374163
    5          6             0        2.418490    0.000447   -0.047005
    6          6             0        1.219076    0.000349   -0.721746
    7          1             0        0.314943   -0.000412    4.065293
    8          1             0       -0.944132   -0.000012   -0.550542
    9          1             0       -0.939085   -0.000333    1.923664
   10          6             0        1.255406   -0.000206    3.519289
   11          6             0        3.676574    0.000350    2.101573
   12          1             0        3.358919    0.000662   -0.593067
   13          1             0        1.203660    0.000487   -1.808202
   14          6             0        3.678079    0.000166    3.477711
   15          6             0        2.454771   -0.000119    4.194044
   16          1             0        4.612989    0.000577    1.548648
   17          1             0        4.618017    0.000231    4.022815
   18          1             0        2.470226   -0.000262    5.280499
 ---------------------------------------------------------------------
                    Distance matrix (angstroms):
                    1          2          3          4          5
     1  C    0.000000
     2  C    1.376170   0.000000
     3  C    2.433234   1.421679   0.000000
     4  C    2.819778   2.457728   1.432567   0.000000
     5  C    2.423038   2.805716   2.457753   1.421638   0.000000
     6  C    1.417562   2.423047   2.819830   2.433199   1.376179
     7  H    4.083220   2.713215   2.164938   3.438347   4.619081
     8  H    1.086567   2.139540   3.419606   3.906265   3.400114
     9  H    2.143701   1.087469   2.164972   3.438326   3.893180
    10  C    3.743030   2.489793   1.421675   2.457785   3.751163
    11  C    4.241170   3.751137   2.457728   1.421708   2.489812
    12  H    3.414062   3.893180   3.438342   2.164943   1.087470
    13  H    2.169993   3.400130   3.906316   3.419564   2.139539
    14  C    5.068671   4.241147   2.819784   2.433253   3.743018
    15  C    4.866429   3.743013   2.433218   2.819881   4.241205
    16  H    4.871707   4.619096   3.438323   2.164985   2.713289
    17  H    6.131200   5.327698   3.906268   3.419620   4.626160
    18  H    5.836424   4.626178   3.419606   3.906366   5.327755
                    6          7          8          9         10
     6  C    0.000000
     7  H    4.871673   0.000000
     8  H    2.169972   4.784475   0.000000
     9  H    3.414067   2.481766   2.474211   0.000000
    10  C    4.241191   1.087470   4.626175   2.713266   0.000000
    11  C    3.743050   3.893169   5.327723   4.619087   2.805705
    12  H    2.143708   5.564720   4.303261   4.980640   4.619117
    13  H    1.086566   5.940350   2.488919   4.303276   5.327743
    14  C    4.866429   3.414079   6.131203   4.871680   2.423030
    15  C    5.068721   2.143698   5.836406   4.083245   1.376144
    16  H    4.083299   4.980633   5.940386   5.564725   3.893173
    17  H    5.836408   4.303284   7.200909   5.940355   3.400102
    18  H    6.131257   2.474262   6.757135   4.784532   2.139544
                   11         12         13         14         15
    11  C    0.000000
    12  H    2.713298   0.000000
    13  H    4.626191   2.474206   0.000000
    14  C    1.376139   4.083270   5.836405   0.000000
    15  C    2.423064   4.871747   6.131251   1.417609   0.000000
    16  H    1.087474   2.481861   4.784555   2.143675   3.414093
    17  H    2.139506   4.784527   6.757114   1.086565   2.170012
    18  H    3.400125   5.940417   7.200963   2.170013   1.086565
                   16         17         18
    16  H    0.000000
    17  H    2.474173   0.000000
    18  H    4.303272   2.488931   0.000000
 Stoichiometry    C10H8
 Framework group  C1[X(C10H8)]
 Deg. of freedom    48
 Full point group                 C1      NOp   1
 Largest Abelian subgroup         C1      NOp   1
 Largest concise Abelian subgroup C1      NOp   1
                         Standard orientation:                         
 ---------------------------------------------------------------------
 Center     Atomic     Atomic              Coordinates (Angstroms)
 Number     Number      Type              X           Y           Z
 ---------------------------------------------------------------------
    1          6             0        2.433200   -0.708803    0.000003
    2          6             0        1.244871   -1.402863   -0.000002
    3          6             0       -0.000023   -0.716270   -0.000001
    4          6             0        0.000046    0.716297   -0.000002
    5          6             0        1.244914    1.402853   -0.000003
    6          6             0        2.433233    0.708759    0.000002
    7          1             0       -1.240889   -2.490307   -0.000013
    8          1             0        3.378541   -1.244487    0.000009
    9          1             0        1.240877   -2.490325    0.000002
   10          6             0       -1.244922   -1.402844   -0.000002
   11          6             0       -1.244897    1.402860    0.000000
   12          1             0        1.240949    2.490315   -0.000001
   13          1             0        3.378580    1.244432    0.000006
   14          6             0       -2.433195    0.708810    0.000001
   15          6             0       -2.433229   -0.708800    0.000004
   16          1             0       -1.240913    2.490327   -0.000009
   17          1             0       -3.378534    1.244493    0.000007
   18          1             0       -3.378594   -1.244438    0.000004
 ---------------------------------------------------------------------
 Rotational constants (GHZ):      3.1170013      1.2302356      0.8820881
 Standard basis: 6-31G(d) (6D, 7F)
 There are   166 symmetry adapted basis functions of A   symmetry.
 Integral buffers will be    262144 words long.
 Raffenetti 2 integral format.
 Two-electron integral symmetry is turned on.
   166 basis functions,   312 primitive gaussians,   166 cartesian basis functions
    34 alpha electrons       34 beta electrons
       nuclear repulsion energy       457.2037342936 Hartrees.
 NAtoms=   18 NActive=   18 NUniq=   18 SFac= 1.00D+00 NAtFMM=   60 Big=F
 One-electron integrals computed using PRISM.
 NBasis=   166 RedAO= T  NBF=   166
 NBsUse=   166 1.00D-06 NBFU=   166
 Initial guess read from the read-write file:
 Initial guess orbital symmetries:
       Occupied  (A) (A) (A) (A) (A) (A) (A) (A) (A) (A) (A) (A)
                 (A) (A) (A) (A) (A) (A) (A) (A) (A) (A) (A) (A)
                 (A) (A) (A) (A) (A) (A) (A) (A) (A) (A)
       Virtual   (A) (A) (A) (A) (A) (A) (A) (A) (A) (A) (A) (A)
                 (A) (A) (A) (A) (A) (A) (A) (A) (A) (A) (A) (A)
                 (A) (A) (A) (A) (A) (A) (A) (A) (A) (A) (A) (A)
                 (A) (A) (A) (A) (A) (A) (A) (A) (A) (A) (A) (A)
                 (A) (A) (A) (A) (A) (A) (A) (A) (A) (A) (A) (A)
                 (A) (A) (A) (A) (A) (A) (A) (A) (A) (A) (A) (A)
                 (A) (A) (A) (A) (A) (A) (A) (A) (A) (A) (A) (A)
                 (A) (A) (A) (A) (A) (A) (A) (A) (A) (A) (A) (A)
                 (A) (A) (A) (A) (A) (A) (A) (A) (A) (A) (A) (A)
                 (A) (A) (A) (A) (A) (A) (A) (A) (A) (A) (A) (A)
                 (A) (A) (A) (A) (A) (A) (A) (A) (A) (A) (A) (A)
 Requested convergence on RMS density matrix=1.00D-08 within 128 cycles.
 Requested convergence on MAX density matrix=1.00D-06.
 Requested convergence on             energy=1.00D-06.
 No special actions if energy rises.
 SCF Done:  E(RB+HF-LYP) =  -385.892725924     A.U. after    8 cycles
             Convg  =    0.8859D-08             -V/T =  2.0099
             S**2   =   0.0000
 ***** Axes restored to original set *****
 -------------------------------------------------------------------
 Center     Atomic                   Forces (Hartrees/Bohr)
 Number     Number              X              Y              Z
 -------------------------------------------------------------------
    1          6           0.000378979    0.000000128   -0.000457400
    2          6           0.000520195   -0.000000502    0.000295948
    3          6          -0.000873664    0.000000195    0.000485388
    4          6           0.000881293    0.000000131   -0.000458465
    5          6          -0.000005061   -0.000000532    0.000571915
    6          6          -0.000574359    0.000000041    0.000115175
    7          1          -0.000065496   -0.000000470    0.000145669
    8          1          -0.000156494    0.000000106    0.000049710
    9          1          -0.000157750    0.000000160   -0.000011540
   10          6          -0.000016704    0.000000224   -0.000595266
   11          6          -0.000522774    0.000000880   -0.000325428
   12          1           0.000067070    0.000000137   -0.000142366
   13          1           0.000116752    0.000000083   -0.000112351
   14          6          -0.000399902   -0.000001066    0.000483364
   15          6           0.000615918    0.000000627   -0.000122449
   16          1           0.000155914   -0.000000412    0.000012967
   17          1           0.000156896    0.000000303   -0.000047524
   18          1          -0.000120813   -0.000000034    0.000112654
 -------------------------------------------------------------------
 Cartesian Forces:  Max     0.000881293 RMS     0.000307196

 GradGradGradGradGradGradGradGradGradGradGradGradGradGradGradGradGradGrad
 Berny optimization.
 Internal  Forces:  Max     0.000518860 RMS     0.000127634
 Search for a local minimum.
 Step number   3 out of a maximum of 103
 All quantities printed in internal units (Hartrees-Bohrs-Radians)
 Update second derivatives using D2CorX and points  1  2  3
 Trust test= 1.37D+00 RLast= 1.11D-02 DXMaxT set to 3.00D-01
     Eigenvalues ---    0.01806   0.01817   0.01818   0.01995   0.02011
     Eigenvalues ---    0.02031   0.02050   0.02128   0.02128   0.02156
     Eigenvalues ---    0.02156   0.02191   0.02222   0.02285   0.02304
     Eigenvalues ---    0.12473   0.16000   0.16000   0.16000   0.16000
     Eigenvalues ---    0.16000   0.16000   0.16042   0.21468   0.22000
     Eigenvalues ---    0.22001   0.22334   0.24269   0.24709   0.33288
     Eigenvalues ---    0.33644   0.33647   0.33656   0.33684   0.33687
     Eigenvalues ---    0.33688   0.33835   0.35100   0.39653   0.39847
     Eigenvalues ---    0.40119   0.41052   0.42557   0.43269   0.48399
     Eigenvalues ---    0.48600   0.48784   0.498151000.000001000.00000
     Eigenvalues --- 1000.000001000.000001000.000001000.000001000.00000
     Eigenvalues --- 1000.000001000.000001000.000001000.000001000.00000
     Eigenvalues --- 1000.000001000.000001000.000001000.000001000.00000
     Eigenvalues --- 1000.000001000.000001000.000001000.000001000.00000
     Eigenvalues --- 1000.000001000.000001000.000001000.000001000.00000
     Eigenvalues --- 1000.000001000.000001000.000001000.000001000.00000
     Eigenvalues --- 1000.000001000.000001000.000001000.000001000.00000
     Eigenvalues --- 1000.000001000.000001000.000001000.000001000.00000
     Eigenvalues --- 1000.000001000.000001000.00000
 RFO step:  Lambda=-7.73300596D-07.
 Quartic linear search produced a step of  0.57818.
 Iteration  1 RMS(Cart)=  0.00070168 RMS(Int)=  0.00000056
 Iteration  2 RMS(Cart)=  0.00000066 RMS(Int)=  0.00000011
 Variable       Old X    -DE/DX   Delta X   Delta X   Delta X     New X
                                 (Linear)    (Quad)   (Total)
    R1        2.60059   0.00024   0.00063   0.00018   0.00081   2.60140
    R2        2.67880  -0.00033  -0.00068  -0.00054  -0.00122   2.67759
    R3        2.05331   0.00011   0.00004   0.00026   0.00030   2.05361
    R4        2.68658  -0.00028  -0.00142   0.00032  -0.00110   2.68548
    R5        2.05502   0.00013   0.00029   0.00012   0.00041   2.05543
    R6        2.70716   0.00052   0.00221   0.00006   0.00227   2.70943
    R7        2.68658  -0.00028  -0.00131   0.00025  -0.00107   2.68551
    R8        2.68651  -0.00026  -0.00128   0.00028  -0.00100   2.68550
    R9        2.68664  -0.00030  -0.00147   0.00032  -0.00114   2.68549
   R10        2.60060   0.00024   0.00056   0.00023   0.00079   2.60139
   R11        2.05502   0.00013   0.00034   0.00007   0.00041   2.05543
   R12        2.05331   0.00011   0.00005   0.00025   0.00030   2.05361
   R13        2.05502   0.00013   0.00031   0.00010   0.00041   2.05543
   R14        2.60053   0.00025   0.00060   0.00025   0.00085   2.60139
   R15        2.60053   0.00026   0.00070   0.00017   0.00086   2.60139
   R16        2.05503   0.00013   0.00027   0.00013   0.00040   2.05542
   R17        2.67889  -0.00035  -0.00077  -0.00053  -0.00131   2.67759
   R18        2.05331   0.00011   0.00005   0.00026   0.00031   2.05362
   R19        2.05331   0.00011   0.00006   0.00024   0.00030   2.05361
    A1        2.09944  -0.00002  -0.00022  -0.00003  -0.00024   2.09920
    A2        2.09743  -0.00012  -0.00134   0.00012  -0.00123   2.09621
    A3        2.08631   0.00013   0.00156  -0.00009   0.00147   2.08778
    A4        2.10896   0.00010   0.00059   0.00020   0.00079   2.10975
[...]
 0000185,-0.1108296,-0.000033,-0.012106,-0.098307,-0.0000386,0.1151652,
 -0.0000388,0.0534555,0.0000198,0.115156,0.0000212,0.0309242,-0.098308,
 -0.0000383,0.11516,-0.0000385,0.0534541,0.00002,0.115155,0.0000209,0.0
 309215,0.080317,0.0000502,-0.133897,0.0000433,-0.1332871,-0.0000435,-0
 .0538533,-0.0000295,0.0290112,-0.0694123,0.0000121,-0.0375197,0.000017
 5,-0.1175753,-0.0000383,-0.0826073,-0.000047,0.1331458,-0.0763398,-0.0
 000421,0.0981341,-0.0000351,0.1091964,0.0000287,0.041225,0.0000191,0.0
 128525,-0.0855077,-0.0000186,-0.0886171,-0.0000195,0.1149377,0.0000007
 ,-0.082576,0.0000017,0.0096309,-0.0679759,-0.0000335,0.0459171,-0.0000
 39,0.1091977,0.0000201,0.1028242,0.0000298,0.0044925,0.0803163,0.00005
 2,-0.1338966,0.0000426,-0.133286,-0.0000434,-0.0538512,-0.00003,0.0290
 131,0.1214097,0.0000424,-0.0307894,0.0000492,-0.1332862,-0.0000198,-0.
 1108252,-0.0000327,-0.0120992,-0.0763416,-0.0000412,0.0981346,-0.00003
 54,0.1091962,0.000029,0.0412276,0.0000189,0.0128498,0.0599056,-0.00000
 81,-0.0009824,-0.0000074,0.1149373,0.000033,-0.007022,0.0000327,-0.135
 7863,0.1359067,0.0000343,0.0325977,0.0000328,-0.1175744,0.0000024,0.07
 76824,0.0000057,-0.0721634,-0.0694134,0.0000118,-0.0375203,0.0000157,-
 0.1175757,-0.0000417,-0.0826056,-0.0000457,0.133146,-0.0679695,-0.0000
 331,0.0459157,-0.0000386,0.1091982,0.0000203,0.102824,0.0000294,0.0044
 932,-0.0855062,-0.0000187,-0.0886174,-0.0000215,0.1149375,-0.0000018,-
 0.0825813,0.0000014,0.0096267,0.0599047,-0.0000082,-0.0009858,-0.00000
 68,0.1149369,0.000035,-0.007023,0.0000318,-0.1357883|Polar=121.4537747
 ,0.0110857,32.6565116,18.8538013,-0.0117145,142.6115761|PG=C01 [X(C10H
 8)]|NImag=0||0.69330895,0.00007944,0.12820206,0.04713367,-0.00007366,0
 .72590193,-0.12940634,-0.00001471,0.02843105,0.67978444,-0.00000669,-0
 .05742009,0.00004936,0.00009004,0.13123327,-0.03179650,0.00004032,-0.3
 9058529,-0.04675815,-0.00008829,0.74038693,0.02640796,0.00001069,-0.05
 703362,-0.25788315,-0.00002307,-0.05138944,0.65168369,0.00000591,0.006
 05894,-0.00000157,-0.00001923,-0.06522016,0.00000181,0.00007234,0.1614
 2264,-0.02032891,0.00000397,-0.04743800,-0.08130531,-0.00000263,-0.140
 67612,0.02515523,-0.00006457,0.67988104,-0.00159577,0.00000001,0.00618
 722,-0.03790137,-0.00000657,-0.00132040,-0.22823195,-0.00003047,0.0512
 2963,0.65167614,-0.00000259,-0.00719122,0.00000557,-0.00000869,0.00640
 816,-0.00000630,-0.00003035,-0.07403603,0.00002044,0.00007168,0.161423
 00,0.02609535,0.00000873,-0.04242252,0.01397275,-0.00000403,0.05304117
 ,0.05122914,0.00002053,-0.17073375,0.02514934,-0.00006433,0.67988264,-
 0.05853816,-0.00001332,0.02442434,-0.01512785,0.00000219,-0.02725170,0
 .02586421,-0.00000153,0.03446144,-0.11211584,-0.00001127,0.03040322,0.
 76578941,-0.00000752,0.00785819,-0.00000305,0.00000131,-0.00569816,0.0
 0000068,-0.00000363,0.00640884,0.00000754,-0.00000727,-0.06522257,0.00
 003367,0.00009677,0.13123492,-0.01971770,-0.00000978,0.05799534,-0.020
 47823,0.00000169,-0.04190987,0.04975422,0.00000991,-0.01072511,0.00048
 843,0.00002889,-0.28642225,0.00150363,-0.00006964,0.65436754,-0.254140
 02,-0.00003526,0.04213655,0.02808130,-0.00000670,0.07302865,-0.0464235
 8,-0.00000354,-0.01896699,0.00326035,0.00000889,-0.07002065,-0.3266117
 9,-0.00002964,-0.08222683,0.67787496,-0.00004402,-0.05985715,0.0000212
 9,-0.00000086,0.00785848,0.00001606,-0.00000608,-0.00719108,-0.0000041
 7,0.00000398,0.00605868,-0.00000670,-0.00002145,-0.05741893,0.00000605
 ,0.00007816,0.12820123,0.10755886,0.00003128,-0.17013987,0.02888702,0.
 00000925,-0.02862366,0.00094164,-0.00000115,0.00240337,-0.03331701,-0.
 00000095,-0.02428955,-0.14245463,-0.00000323,-0.19338701,0.03847468,-0
 .00007699,0.74134236,0.00002493,-0.00000004,0.00044086,0.00077835,0.00
 000079,-0.00142320,0.00272502,0.00000014,-0.00113820,0.00121104,-0.000
 00050,-0.00061299,-0.00009477,0.,-0.00042845,0.00032591,0.00000008,-0.
 00000741,0.28174739,0.00000007,-0.00011660,0.00000004,0.00000031,-0.00
 301413,-0.00000082,-0.00000380,0.00286382,0.00000181,-0.00000021,0.004
 81803,0.00000121,-0.00000029,0.00022394,-0.00000002,0.00000007,-0.0001
 5562,-0.00000004,0.00005807,0.02477323,-0.00034151,-0.00000008,0.00012
 594,0.00204319,-0.00000031,0.00155471,0.02862841,0.00000649,-0.0122030
 5,-0.00240209,0.00000097,-0.00517165,0.00178873,0.00000032,-0.00014594
 ,0.00005490,-0.00000003,0.00012108,-0.12972751,-0.00003534,0.13524743,
 -0.26963009,-0.00001917,-0.12066271,0.00374928,-0.00000006,0.00180184,
 0.00145648,-0.00000122,0.00075337,0.00038034,-0.00000002,0.00087440,-0
 .00289171,-0.00000181,0.00436190,-0.01878861,-0.00000095,-0.01631191,0
 .00002139,-0.00000002,-0.00002586,0.28480803,-0.00001921,-0.03543787,-
 0.00000544,0.00000426,0.00260724,0.00000214,-0.00000143,0.00885182,0.0
 0000203,0.00000004,-0.00028133,0.00000024,-0.00000165,0.00511937,0.000
 00152,-0.00000520,0.00201595,-0.00000386,-0.00000003,0.00017428,0.0000
 0002,0.00002172,0.02513380,-0.12026045,-0.00000540,-0.12980014,-0.0301
 0617,-0.00000271,-0.01142838,0.00223077,0.00000229,-0.00536593,0.00039
 171,0.00000013,-0.00087702,0.00303083,0.00000136,-0.00144970,0.0154095
 9,0.00000096,0.01213067,0.00004626,0.00000004,-0.00003124,0.13028750,0
 .00000492,0.13460167,0.00383914,0.00000040,-0.00206705,-0.26534543,-0.
 00005074,0.12021280,-0.02035993,-0.00000559,0.01567467,-0.00235620,-0.
 00000053,-0.00440380,0.00008925,0.00000013,-0.00084846,0.00156749,-0.0
 0000091,-0.00042290,0.00034792,0.00000020,-0.00129465,0.00093465,0.000
 00081,0.00033793,0.28105530,-0.00000394,0.00304399,0.00000169,-0.00005
 045,-0.03524023,0.00003063,-0.00000178,0.00286343,0.00000134,-0.000000
 77,0.00481817,0.00000014,0.00000013,-0.00000773,-0.00000008,-0.0000006
 7,0.00797188,0.00000176,-0.00000005,0.00020170,-0.00000015,0.00000090,
 -0.00475796,-0.00000074,0.00005602,0.02477296,0.02998569,0.00000648,-0
 .01149824,0.11962427,0.00003063,-0.13020209,-0.01409175,-0.00000320,0.
 01088208,-0.00261482,0.00000044,-0.00160411,-0.00073912,-0.00000004,-0
 .00052969,-0.00208739,0.00000147,-0.00537211,0.00050279,0.00000012,-0.
 00009638,-0.00032375,-0.00000082,0.00107149,-0.13011743,-0.00003438,0.
 13594134,-0.01066056,-0.00000355,0.00780900,-0.00536684,0.00000474,-0.
 04656823,-0.11211581,-0.00001133,0.03040348,0.02586401,-0.00000155,0.0
 3446130,-0.00926551,-0.00000147,-0.00502944,0.00818801,0.00000145,-0.0
 0111432,-0.26491621,-0.00005273,0.12045198,-0.00006926,0.00000014,-0.0
 0158645,0.00110425,0.00000081,-0.00124038,0.76579615,-0.00000099,0.005
 59412,-0.00000117,0.00000216,0.00374398,-0.00000059,-0.00000745,-0.065
 22322,0.00003410,-0.00000349,0.00640880,0.00000759,-0.00000147,0.00469
 721,0.00000141,-0.00000120,-0.00033319,0.00000006,-0.00005248,-0.03524
 072,0.00003185,-0.00000007,0.00040704,-0.00000024,0.00000032,-0.003014
 35,-0.00000076,0.00009932,0.13123523,-0.01174732,-0.00000421,0.0235215
 9,-0.02699167,0.00000249,-0.04664252,0.00048922,0.00002937,-0.28641666
 ,0.04975322,0.00000995,-0.01072529,-0.00502935,0.00000143,-0.01165865,
 0.01885075,0.00000310,-0.00201112,0.11986376,0.00003182,-0.13062968,-0
 .00000719,0.,0.00032652,0.00222607,-0.00000022,0.00122874,0.00150454,-
 0.00006957,0.65435838,-0.00713817,-0.00000241,0.01025087,-0.00679247,-
 0.00000127,-0.00364194,-0.03790035,-0.00000865,0.01397242,-0.25787530,
 -0.00001879,-0.08129862,-0.00536689,0.00000219,-0.02699173,0.01701701,
 0.00000124,0.00378326,0.00029600,0.00000014,-0.00073243,0.00000743,0.0
 0000014,0.00004709,-0.00071414,-0.00000005,-0.00077601,-0.01512737,0.0
 0000130,-0.02047783,0.67977465,0.00000027,-0.00033320,-0.00000025,-0.0
 0000125,0.00469731,0.00000195,-0.00000662,0.00640796,-0.00000396,-0.00
 002262,-0.06522113,-0.00000254,0.00000472,0.00374397,0.00000253,-0.000
 00133,0.00559403,0.00000185,0.00000013,-0.00000773,-0.00000002,0.00000
 017,-0.00095900,-0.00000017,-0.00000033,0.00022399,-0.00000015,0.00000
 218,-0.00569812,0.00000166,0.00008905,0.13123283,-0.00971422,-0.000003
 31,0.01331450,-0.00364197,0.00000192,-0.01413111,-0.00132005,-0.000006
 29,0.05304051,-0.05138324,0.00000191,-0.14067178,-0.04656817,-0.000000
 47,-0.04664265,0.02333932,0.00000485,-0.00415577,-0.00062305,-0.000000
 03,-0.00073645,-0.00017693,-0.00000021,0.00036678,0.00144111,0.0000001
 9,0.00047348,-0.02725183,0.00000057,-0.04190890,-0.04676962,-0.0000872
 9,0.74039783,-0.00263897,-0.00000102,-0.00444773,0.00029602,0.00000013
 ,-0.00062310,0.00121105,-0.00000048,-0.00061299,0.00272516,0.00000013,
 -0.00113826,-0.26491375,-0.00005157,0.11986436,-0.01974020,-0.00000576
 ,0.01675489,-0.00000740,-0.00000004,0.00000808,-0.00111645,-0.00000034
 ,0.00087023,-0.00002888,0.00000019,0.00016545,-0.00009477,0.,-0.000428
 46,0.00077829,0.00000077,-0.00142323,0.28174570,-0.00000123,0.00797203
 ,0.00000059,0.00000012,-0.00000775,0.00000001,-0.00000025,0.00481809,0
 .00000119,-0.00000379,0.00286365,0.00000175,-0.00005184,-0.03524081,0.
 00003143,-0.00000134,0.00304404,0.00000133,-0.00000004,0.00021498,0.00
 000010,-0.00000011,0.00036052,0.00000012,0.00000019,-0.00138835,-0.000
 00018,-0.00000028,0.00022396,-0.00000002,0.00000032,-0.00301421,-0.000
 00081,0.00005709,0.02477326,-0.00278330,0.00000081,-0.00116556,-0.0007
 3245,-0.00000001,-0.00073646,-0.00240209,0.00000095,-0.00517163,0.0286
 2816,0.00000643,-0.01220285,0.12045316,0.00003139,-0.13063156,-0.01529
 801,-0.00000356,0.01208067,0.00000808,0.00000010,-0.00054088,-0.000833
 26,-0.00000014,0.00046341,0.00015288,-0.00000018,0.00014974,0.00178872
 ,0.00000033,-0.00014593,0.00204319,-0.00000031,0.00155470,-0.12972808,
 -0.00003484,0.13524920,0.00511137,-0.00000343,0.02882126,-0.00494996,-
 0.00000177,0.00187599,-0.00111628,-0.00000007,-0.00044809,-0.00500562,
 -0.00000190,-0.00139518,0.00428504,0.00000424,-0.02980546,-0.06046874,
 -0.00000336,-0.00289588,0.00003133,0.00000001,-0.00008281,0.00101982,0
 .00000065,-0.00056919,0.00006931,-0.00000025,0.00153561,0.00033614,0.0
 0000017,0.00023154,0.00091185,0.00000021,-0.00103593,0.00103267,0.0000
 0083,0.00039290,0.05936896,0.00000083,0.00201620,0.00000628,-0.0000019
 8,0.00511934,0.00000086,-0.00000011,-0.00028132,-0.00000018,-0.0000017
 1,0.00885185,0.00000083,-0.00000005,0.00260715,-0.00000254,-0.00000330
 ,-0.03543795,0.00004057,0.,0.00003492,0.,0.00000054,-0.00277322,-0.000
 00058,-0.00000002,0.00036052,0.00000038,0.00000019,-0.00095898,-0.0000
 0010,0.,0.00040702,-0.00000002,0.00000093,-0.00475810,-0.00000071,0.00
 000467,0.02513386,-0.00290059,0.00000142,-0.01177011,0.00320708,0.0000
 0110,0.00060843,0.00003463,-0.00000011,0.00061963,-0.00287263,0.000000
 62,0.00109642,0.00210246,0.00000228,-0.01196428,-0.00329768,0.00004053
 ,-0.33896101,0.00002512,0.,0.00000428,0.00027218,-0.00000045,0.0008531
 9,-0.00016789,0.00000012,-0.00072237,0.00000750,-0.00000014,0.00003807
 ,0.00054331,0.00000022,-0.00065461,-0.00026877,-0.00000082,0.00097350,
 0.00378805,-0.00004469,0.36004103,-0.00607073,-0.00000216,0.00934472,-
 0.00713827,0.00000024,-0.00971433,-0.00159568,-0.00000258,0.02609518,0
 .02640763,0.00000585,-0.02032928,-0.01066071,-0.00000092,-0.01174756,0
 .01133901,0.00000170,-0.00031465,-0.00263878,-0.00000127,-0.00278325,-
 0.00004446,-0.00000008,0.00024915,0.00014986,0.00000006,-0.00010620,-0
 .05853767,-0.00000752,-0.01971740,-0.12940570,-0.00000671,-0.03179438,
 0.00002494,0.00000008,-0.00034150,-0.00031787,0.00000011,-0.00035598,0
 .69330057,-0.00000214,-0.00014919,0.00000349,-0.00000241,-0.00033320,-
 0.00000328,0.00000008,-0.00719130,0.00000863,0.00001063,0.00605907,0.0
 0000390,-0.00000351,0.00559398,-0.00000416,0.00000436,0.00043067,0.000
 00004,-0.00000111,0.00797214,0.00000079,-0.00000006,0.00024361,0.00000
 010,0.00000005,-0.00015563,-0.00000008,-0.00001348,0.00785803,-0.00000
 962,-0.00001467,-0.05741890,0.00003953,-0.00000004,-0.00011659,-0.0000
 0008,0.00000011,-0.00075883,-0.00000014,0.00007989,0.12820161,0.009344
 65,0.00000351,-0.01572165,0.01025093,-0.00000022,0.01331456,0.00618698
 ,0.00000559,-0.04242199,-0.05703317,-0.00000160,-0.04743835,0.00780887
 ,-0.00000119,0.02352167,-0.02044474,-0.00000302,-0.00030987,-0.0044476
 9,0.00000054,-0.00116559,0.00009604,0.00000008,-0.00018599,-0.00004388
 ,-0.00000007,0.00029712,0.02442438,-0.00000295,0.05799462,0.02843175,0
 .00004872,-0.39059713,0.00044086,0.00000003,0.00012594,-0.00037581,-0.
 00000013,-0.00011925,0.04713301,-0.00007156,0.72591702,0.01133895,0.00
 000440,-0.02044477,0.01701715,-0.00000131,0.02333950,0.00325981,0.0000
 0878,-0.07002036,-0.04642292,-0.00000352,-0.01896687,0.00818798,-0.000
 00121,0.01885093,-0.02138655,-0.00000334,0.00075045,-0.01973944,-0.000
 00142,-0.01529778,0.00014547,0.00000016,-0.00011582,0.00005937,-0.0000
 0004,0.00046016,-0.32661693,-0.00003116,-0.08222757,0.02808092,-0.0000
 0660,0.07302817,0.00032592,0.00000006,0.00005490,-0.00029942,-0.000000
 07,-0.00004702,-0.25413977,-0.00003465,0.04213647,0.67788017,0.0000017
 2,0.00043067,-0.00000302,0.00000125,0.00559393,0.00000486,0.00000398,0
 .00605882,-0.00000670,-0.00000613,-0.00719113,-0.00000413,0.00000144,-
 0.00033321,0.00000309,-0.00000333,-0.00014920,0.00000014,-0.00000578,0
 .00304379,-0.00000358,0.00000015,-0.00075884,-0.00000005,0.00000007,-0
 .00011659,0.00000005,-0.00002296,-0.05741865,0.00000515,-0.00000083,0.
 00785840,0.00001600,0.00000008,-0.00015563,-0.00000003,-0.00000010,0.0
 0024361,0.00000002,-0.00004338,-0.05985705,0.00002079,0.00007919,0.128
 20101,-0.00031468,0.00000006,-0.00030980,0.00378324,0.00000187,-0.0041
 5595,-0.03331755,-0.00000120,-0.02428966,0.00094182,-0.00000113,0.0024
 0316,-0.00111431,0.00000007,-0.00201115,0.00075051,0.00000014,-0.00040
 604,0.01675475,0.00000144,0.01208079,-0.00009599,-0.00000003,-0.000582
 61,-0.00032220,-0.00000007,0.00009153,-0.14245422,-0.00000406,-0.19338
 564,0.02888692,0.00000909,-0.02862392,-0.00000741,-0.00000004,0.000121
 07,0.00010609,0.00000003,0.00006896,0.10755943,0.00003073,-0.17013910,
 0.03847703,-0.00007497,0.74134123,0.00014986,0.00000005,-0.00004387,-0
 .00071416,-0.00000033,0.00144109,-0.00235616,-0.00000051,-0.00440377,-
 0.02035993,-0.00000554,0.01567480,0.00110422,0.00000031,0.00222606,0.0
 0005938,0.00000007,-0.00032220,-0.00002888,0.00000018,0.00015288,0.000
 03538,0.00000001,-0.00008054,-0.00042000,-0.00000007,-0.00022344,0.000
 08923,0.00000013,-0.00084846,-0.26534545,-0.00005022,0.12021623,0.0003
 4793,0.00000020,-0.00129464,-0.00002734,-0.00000002,-0.00005320,0.0038
 3950,0.00000040,-0.00206712,0.00156748,-0.00000090,-0.00042298,0.28105
 503,0.00000006,-0.00015564,-0.00000007,-0.00000005,0.00022398,0.000000
 18,-0.00000076,0.00481811,0.00000018,-0.00000171,0.00286344,0.00000133
 ,0.00000079,-0.00301429,-0.00000022,-0.00000004,-0.00011659,-0.0000000
 7,0.00000019,-0.00138838,-0.00000018,0.,0.00003492,0.,-0.00000007,0.00
 021497,0.00000001,0.00000012,-0.00000772,-0.00000006,-0.00004997,-0.03
 523970,0.00003032,-0.00000005,0.00020170,-0.00000015,-0.00000003,0.000
 17429,0.00000001,-0.00000389,0.00304389,0.00000166,-0.00000070,0.00797
 201,0.00000171,0.00005545,0.02477249,-0.00010619,-0.00000008,0.0002971
 1,-0.00077600,-0.00000015,0.00047349,-0.00261480,0.00000044,-0.0016041
 4,-0.01409161,-0.00000317,0.01088199,-0.00124042,-0.00000075,0.0012287
 5,0.00046016,0.00000004,0.00009152,0.00016545,-0.00000018,0.00014974,0
 .00002739,0.,0.00000023,-0.00022345,0.,-0.00012825,-0.00073906,-0.0000
 0005,-0.00052967,0.11962806,0.00003036,-0.13020568,0.00050278,0.000000
 12,-0.00009641,0.00001891,0.00000002,0.00001749,0.02998537,0.00000640,
 -0.01149783,-0.00208743,0.00000145,-0.00537200,-0.13012093,-0.00003406
 ,0.13594448,-0.00004447,-0.00000006,0.00009605,0.00000743,0.00000017,-
 0.00017694,0.00038035,-0.00000002,0.00087442,0.00145649,-0.00000123,0.
 00075345,-0.00006925,-0.00000007,-0.00000721,0.00014549,0.00000015,-0.
 00009598,-0.00111645,-0.00000012,-0.00083326,-0.00001918,0.,-0.0000245
 9,0.00003538,0.,0.00002739,-0.00289176,-0.00000180,0.00436189,0.003749
 63,-0.00000007,0.00180179,0.00002139,-0.00000002,-0.00002586,0.0000014
 9,0.,-0.00001244,-0.26962304,-0.00002007,-0.12066297,-0.01878948,-0.00
 000106,-0.01631220,0.00093457,0.00000091,-0.00032381,0.28480158,-0.000
 00008,0.00024361,0.00000006,0.00000015,-0.00095900,-0.00000020,0.00000
 004,-0.00028134,0.00000019,-0.00000146,0.00885191,0.00000199,0.0000001
 5,0.00040707,0.00000002,0.00000014,-0.00075886,-0.00000003,-0.00000033
 ,0.00036050,-0.00000013,0.,0.00004906,0.,0.,0.00003492,0.,-0.00000161,
 0.00511929,0.00000149,0.00000423,0.00260723,0.00000224,-0.00000003,0.0
 0017428,0.00000002,0.00000003,-0.00002940,0.,-0.00002029,-0.03543857,-
 0.00000631,-0.00000513,0.00201619,-0.00000377,0.00000081,-0.00475801,-
 0.00000082,0.00002273,0.02513432,0.00024915,0.00000010,-0.00018599,0.0
 0004710,-0.00000017,0.00036678,0.00039169,0.00000013,-0.00087700,0.002
 23082,0.00000222,-0.00536588,-0.00158647,-0.00000023,0.00032650,-0.000
 11581,-0.00000004,-0.00058261,0.00087020,0.00000012,0.00046340,-0.0000
 2459,0.,0.00000112,-0.00008054,0.,0.00000023,0.00303079,0.00000133,-0.
 00144963,-0.03010581,-0.00000278,-0.01142818,0.00004626,0.00000003,-0.
 00003124,-0.00015784,-0.00000001,-0.00009406,-0.12026165,-0.00000609,-
 0.12980380,0.01540971,0.00000103,0.01213042,0.00033799,-0.00000071,0.0
 0107153,0.13028809,0.00000564,0.13460518,-0.00031787,0.00000012,-0.000
 37581,0.00091186,0.00000022,-0.00103595,-0.00500569,-0.00000196,-0.001
 39521,-0.00111627,-0.00000007,-0.00044809,0.00033613,0.00000016,0.0002
 3155,-0.00029942,-0.00000010,0.00010608,0.00103265,0.00000084,0.000392
 99,0.00000149,0.00000003,-0.00015784,-0.00002735,-0.00000003,0.0000189
 2,0.00428491,0.00000424,-0.02980571,-0.00494995,-0.00000175,0.00187601
 ,0.00003133,0.00000001,-0.00008281,0.00001725,0.,-0.00000415,0.0051111
 7,-0.00000339,0.02882141,-0.06046870,-0.00000341,-0.00289824,0.0000693
 3,-0.00000025,0.00153559,0.00101985,0.00000065,-0.00056908,0.05936929,
 0.00000011,-0.00075886,-0.00000015,0.00000001,0.00040703,-0.00000002,-
 0.00000179,0.00885196,0.00000079,-0.00000014,-0.00028134,-0.00000017,0
 .00000020,-0.00095895,-0.00000010,-0.00000008,0.00024361,0.00000004,0.
 00000096,-0.00475815,-0.00000071,0.,-0.00002940,-0.00000001,-0.0000000
 2,0.00017430,0.00000002,0.,0.00260729,-0.00000265,-0.00000194,0.005119
 23,0.00000090,0.,0.00003492,0.,0.,0.00004905,0.00000001,0.00000089,0.0
 0201627,0.00000613,-0.00000345,-0.03543811,0.00004014,-0.00000002,0.00
 036052,0.00000038,0.00000055,-0.00277320,-0.00000057,0.00000471,0.0251
 3382,-0.00035598,-0.00000014,-0.00011925,0.00054331,0.00000023,-0.0006
 5462,-0.00287263,0.00000057,0.00109641,0.00003463,-0.00000011,0.000619
 66,0.00000750,-0.00000013,0.00003807,-0.00004701,0.00000002,0.00006895
 ,-0.00026876,-0.00000080,0.00097349,-0.00001244,0.,-0.00009406,-0.0000
 5320,0.00000001,0.00001750,0.00210225,0.00000228,-0.01196422,0.0032071
 3,0.00000108,0.00060839,0.00002512,0.,0.00000428,-0.00000415,0.0000000
 1,-0.00003531,-0.00290068,0.00000141,-0.01177039,-0.00329969,0.0000399
 1,-0.33896127,-0.00016790,0.00000012,-0.00072237,0.00027217,-0.0000004
 4,0.00085325,0.00379034,-0.00004402,0.36004149||-0.00001863,0.00000009
 ,-0.00000888,0.00002511,-0.00000062,-0.00001125,-0.00001792,0.00000048
 ,-0.00000568,0.00001438,0.00000005,0.00000430,-0.00002798,-0.00000065,
 0.00000998,0.00000565,0.00000020,-0.00001787,-0.00000189,-0.00000029,-
 0.00000144,-0.00000062,0.00000008,-0.00000572,-0.00000023,0.00000015,0
 .00000034,0.00002757,0.00000006,-0.00000584,-0.00001914,0.00000056,0.0
 0001482,0.00000096,0.00000015,0.00000018,-0.00000603,0.00000005,-0.000
 00306,0.00001671,-0.00000082,0.00000483,-0.00000369,0.00000059,0.00001
 578,-0.00000104,-0.00000014,-0.00000074,0.00000066,0.00000011,0.000007
 57,0.00000614,-0.00000005,0.00000269|||@


 THE GREAT THING ABOUT BEING IMPERFECT IS THE JOY IT BRINGS OTHERS.
   -- SIGN OUTSIDE LAKE AGASSIZ JR. HIGH SCHOOL, FARGO, N.D.
 Job cpu time:  0 days  0 hours 12 minutes 29.0 seconds.
 File lengths (MBytes):  RWF=     65 Int=      0 D2E=      0 Chk=      9 Scr=      1
 Normal termination of Gaussian 03 at Wed Sep 23 13:20:42 2020.
