 Entering Link 1 = C:\G03W\l1.exe PID=       736.
  
 Copyright (c) 1988,1990,1992,1993,1995,1998,2003, Gaussian, Inc.
                  All Rights Reserved.
  
 This is the Gaussian(R) 03 program.  It is based on the
 the Gaussian(R) 98 system (copyright 1998, Gaussian, Inc.),
 the Gaussian(R) 94 system (copyright 1995, Gaussian, Inc.),
 the Gaussian 92(TM) system (copyright 1992, Gaussian, Inc.),
 the Gaussian 90(TM) system (copyright 1990, Gaussian, Inc.),
 the Gaussian 88(TM) system (copyright 1988, Gaussian, Inc.),
 the Gaussian 86(TM) system (copyright 1986, Carnegie Mellon
 University), and the Gaussian 82(TM) system (copyright 1983,
 Carnegie Mellon University). Gaussian is a federally registered
 trademark of Gaussian, Inc.
  
 This software contains proprietary and confidential information,
 including trade secrets, belonging to Gaussian, Inc.
  
 This software is provided under written license and may be
 used, copied, transmitted, or stored only in accord with that
 written license.
  
 The following legend is applicable only to US Government
 contracts under DFARS:
  
                    RESTRICTED RIGHTS LEGEND
  
 Use, duplication or disclosure by the US Government is subject
 to restrictions as set forth in subparagraph (c)(1)(ii) of the
 Rights in Technical Data and Computer Software clause at DFARS
 252.227-7013.
  
 Gaussian, Inc.
 Carnegie Office Park, Building 6, Pittsburgh, PA 15106 USA
  
 The following legend is applicable only to US Government
 contracts under FAR:
  
                    RESTRICTED RIGHTS LEGEND
  
 Use, reproduction and disclosure by the US Government is subject
 to restrictions as set forth in subparagraph (c) of the
 Commercial Computer Software - Restricted Rights clause at FAR
 52.227-19.
  
 Gaussian, Inc.
 Carnegie Office Park, Building 6, Pittsburgh, PA 15106 USA
  
  
 ---------------------------------------------------------------
 Warning -- This program may not be used in any manner that
 competes with the business of Gaussian, Inc. or will provide
 assistance to any competitor of Gaussian, Inc.  The licensee
 of this program is prohibited from giving any competitor of
 Gaussian, Inc. access to this program.  By using this program,
 the user acknowledges that Gaussian, Inc. is engaged in the
 business of creating and licensing software in the field of
 computational chemistry and represents and warrants to the
 licensee that it is not a competitor of Gaussian, Inc. and that
 it will not use this program in any manner prohibited above.
 ---------------------------------------------------------------
  

 Cite this work as:
 Gaussian 03, Revision B.05,
 M. J. Frisch, G. W. Trucks, H. B. Schlegel, G. E. Scuseria, 
 M. A. Robb, J. R. Cheeseman, J. A. Montgomery, Jr., T. Vreven, 
 K. N. Kudin, J. C. Burant, J. M. Millam, S. S. Iyengar, J. Tomasi, 
 V. Barone, B. Mennucci, M. Cossi, G. Scalmani, N. Rega, 
 G. A. Petersson, H. Nakatsuji, M. Hada, M. Ehara, K. Toyota, 
 R. Fukuda, J. Hasegawa, M. Ishida, T. Nakajima, Y. Honda, O. Kitao, 
 H. Nakai, M. Klene, X. Li, J. E. Knox, H. P. Hratchian, J. B. Cross, 
 C. Adamo, J. Jaramillo, R. Gomperts, R. E. Stratmann, O. Yazyev, 
 A. J. Austin, R. Cammi, C. Pomelli, J. W. Ochterski, P. Y. Ayala, 
 K. Morokuma, G. A. Voth, P. Salvador, J. J. Dannenberg, 
 V. G. Zakrzewski, S. Dapprich, A. D. Daniels, M. C. Strain, 
 O. Farkas, D. K. Malick, A. D. Rabuck, K. Raghavachari, 
 J. B. Foresman, J. V. Ortiz, Q. Cui, A. G. Baboul, S. Clifford, 
 J. Cioslowski, B. B. Stefanov, G. Liu, A. Liashenko, P. Piskorz, 
 I. Komaromi, R. L. Martin, D. J. Fox, T. Keith, M. A. Al-Laham, 
 C. Y. Peng, A. Nanayakkara, M. Challacombe, P. M. W. Gill, 
 B. Johnson, W. Chen, M. W. Wong, C. Gonzalez, and J. A. Pople, 
 Gaussian, Inc., Pittsburgh PA, 2003.
 
 **********************************************
 Gaussian 03:  x86-Win32-G03RevB.05  8-Nov-2003
                  23-Sep-2020 
 **********************************************
 %chk=acetic_acid.chk
 %mem=6MW
 %nproc=1
 Will use up to    1 processors via shared memory.
 -------------------------------------------
 # opt freq b3lyp/6-31g(d) geom=connectivity
 -------------------------------------------
 1/14=-1,18=20,26=3,38=1,57=2/1,3;
 2/9=110,17=6,18=5,40=1/2;
 3/5=1,6=6,7=1,11=2,16=1,25=1,30=1,74=-5/1,2,3;
 4//1;
 5/5=2,38=5/2;
 6/7=2,8=2,9=2,10=2,28=1/1;
 7//1,2,3,16;
 1/14=-1,18=20/3(1);
 99//99;
 2/9=110/2;
 3/5=1,6=6,7=1,11=2,16=1,25=1,30=1,74=-5/1,2,3;
 4/5=5,16=3/1;
 5/5=2,38=5/2;
 7//1,2,3,16;
 1/14=-1,18=20/3(-5);
 2/9=110/2;
 6/7=2,8=2,9=2,10=2,19=2,28=1/1;
 99/9=1/99;
 -------------------
 Title Card Required
 -------------------
 Symbolic Z-matrix:
 Charge =  0 Multiplicity = 1
 C
 C                    1    B1
 H                    2    B2       1    A1
 H                    2    B3       1    A2       3    D1       0
 H                    2    B4       1    A3       3    D2       0
 O                    1    B5       2    A4       5    D3       0
 O                    1    B6       6    A5       2    D4       0
 H                    7    B7       1    A6       6    D5       0
       Variables:
  B1                    1.54                     
  B2                    1.07                     
  B3                    1.07                     
  B4                    1.07                     
  B5                    1.2584                   
  B6                    1.43                     
  B7                    0.96                     
  A1                  109.4712                   
  A2                  109.4712                   
  A3                  109.47123                  
  A4                  119.88653                  
  A5                  120.22695                  
  A6                  109.5                      
  D1                  120.00001                  
  D2                 -119.99999                  
  D3                   59.9999                   
  D4                  180.                       
  D5                   84.4626                   
 
     3 tetrahedral angles replaced.

 GradGradGradGradGradGradGradGradGradGradGradGradGradGradGradGradGradGrad
 Berny optimization.
 Initialization pass.
                           ----------------------------
                           !    Initial Parameters    !
                           ! (Angstroms and Degrees)  !
 --------------------------                            --------------------------
 ! Name  Definition              Value          Derivative Info.                !
 --------------------------------------------------------------------------------
 ! R1    R(1,2)                  1.54           estimate D2E/DX2                !
 ! R2    R(1,6)                  1.2584         estimate D2E/DX2                !
 ! R3    R(1,7)                  1.43           estimate D2E/DX2                !
 ! R4    R(2,3)                  1.07           estimate D2E/DX2                !
 ! R5    R(2,4)                  1.07           estimate D2E/DX2                !
 ! R6    R(2,5)                  1.07           estimate D2E/DX2                !
 ! R7    R(7,8)                  0.96           estimate D2E/DX2                !
 ! A1    A(2,1,6)              119.8865         estimate D2E/DX2                !
 ! A2    A(2,1,7)              119.8865         estimate D2E/DX2                !
 ! A3    A(6,1,7)              120.2269         estimate D2E/DX2                !
 ! A4    A(1,2,3)              109.4712         estimate D2E/DX2                !
 ! A5    A(1,2,4)              109.4712         estimate D2E/DX2                !
 ! A6    A(1,2,5)              109.4712         estimate D2E/DX2                !
 ! A7    A(3,2,4)              109.4712         estimate D2E/DX2                !
 ! A8    A(3,2,5)              109.4712         estimate D2E/DX2                !
 ! A9    A(4,2,5)              109.4712         estimate D2E/DX2                !
 ! A10   A(1,7,8)              109.5            estimate D2E/DX2                !
 ! D1    D(6,1,2,3)            179.9999         estimate D2E/DX2                !
 ! D2    D(6,1,2,4)            -60.0001         estimate D2E/DX2                !
 ! D3    D(6,1,2,5)             59.9999         estimate D2E/DX2                !
 ! D4    D(7,1,2,3)             -0.0001         estimate D2E/DX2                !
 ! D5    D(7,1,2,4)            119.9999         estimate D2E/DX2                !
 ! D6    D(7,1,2,5)           -120.0001         estimate D2E/DX2                !
 ! D7    D(2,1,7,8)            -95.5374         estimate D2E/DX2                !
 ! D8    D(6,1,7,8)             84.4626         estimate D2E/DX2                !
 --------------------------------------------------------------------------------
 Trust Radius=3.00D-01 FncErr=1.00D-07 GrdErr=1.00D-06
 Number of steps in this run=  35 maximum allowed number of steps= 100.
 GradGradGradGradGradGradGradGradGradGradGradGradGradGradGradGradGradGrad

                          Input orientation:                          
 ---------------------------------------------------------------------
 Center     Atomic     Atomic              Coordinates (Angstroms)
 Number     Number      Type              X           Y           Z
 ---------------------------------------------------------------------
    1          6             0        0.000000    0.000000    0.000000
    2          6             0        0.000000    0.000000    1.540000
    3          1             0        1.008806    0.000000    1.896667
    4          1             0       -0.504403    0.873651    1.896667
    5          1             0       -0.504403   -0.873651    1.896667
    6          8             0       -1.091050   -0.000002   -0.627040
    7          8             0        1.239830    0.000002   -0.712546
    8          1             0        1.474156    0.900716   -0.947933
 ---------------------------------------------------------------------
                    Distance matrix (angstroms):
                    1          2          3          4          5
     1  C    0.000000
     2  C    1.540000   0.000000
     3  H    2.148263   1.070000   0.000000
     4  H    2.148263   1.070000   1.747303   0.000000
     5  H    2.148263   1.070000   1.747303   1.747303   0.000000
     6  O    1.258400   2.426202   3.283062   2.734323   2.734322
     7  O    1.430000   2.571214   2.619420   3.257852   3.257853
     8  H    1.970533   3.028900   3.019865   3.465137   3.892919
                    6          7          8
     6  O    0.000000
     7  O    2.332448   0.000000
     8  H    2.737617   0.960000   0.000000
 Stoichiometry    C2H4O2
 Framework group  C1[X(C2H4O2)]
 Deg. of freedom    18
 Full point group                 C1      NOp   1
 Largest Abelian subgroup         C1      NOp   1
 Largest concise Abelian subgroup C1      NOp   1
                         Standard orientation:                         
 ---------------------------------------------------------------------
 Center     Atomic     Atomic              Coordinates (Angstroms)
 Number     Number      Type              X           Y           Z
 ---------------------------------------------------------------------
    1          6             0        0.064738    0.115087   -0.026489
    2          6             0       -1.374336   -0.431836    0.012757
    3          1             0       -1.350916   -1.500757   -0.029205
    4          1             0       -1.849487   -0.120820    0.919620
    5          1             0       -1.922482   -0.053937   -0.824875
    6          8             0        0.264891    1.356848    0.012742
    7          8             0        1.168989   -0.789891   -0.107388
    8          1             0        1.509435   -0.959639    0.774021
 ---------------------------------------------------------------------
 Rotational constants (GHZ):     10.7209137      8.5368351      4.9668890
 Standard basis: 6-31G(d) (6D, 7F)
 There are    68 symmetry adapted basis functions of A   symmetry.
 Integral buffers will be    262144 words long.
 Raffenetti 2 integral format.
 Two-electron integral symmetry is turned on.
    68 basis functions,   128 primitive gaussians,    68 cartesian basis functions
    16 alpha electrons       16 beta electrons
       nuclear repulsion energy       117.1110184304 Hartrees.
 NAtoms=    8 NActive=    8 NUniq=    8 SFac= 1.00D+00 NAtFMM=   60 Big=F
 One-electron integrals computed using PRISM.
 NBasis=    68 RedAO= T  NBF=    68
 NBsUse=    68 1.00D-06 NBFU=    68
 Harris functional with IExCor=  402 diagonalized for initial guess.
 ExpMin= 1.61D-01 ExpMax= 5.48D+03 ExpMxC= 8.25D+02 IAcc=1 IRadAn=         1 AccDes= 1.00D-06
 HarFok:  IExCor= 402 AccDes= 1.00D-06 IRadAn=         1 IDoV=1
 ScaDFX=  1.000000  1.000000  1.000000  1.000000
 Initial guess orbital symmetries:
       Occupied  (A) (A) (A) (A) (A) (A) (A) (A) (A) (A) (A) (A)
                 (A) (A) (A) (A)
       Virtual   (A) (A) (A) (A) (A) (A) (A) (A) (A) (A) (A) (A)
                 (A) (A) (A) (A) (A) (A) (A) (A) (A) (A) (A) (A)
                 (A) (A) (A) (A) (A) (A) (A) (A) (A) (A) (A) (A)
                 (A) (A) (A) (A) (A) (A) (A) (A) (A) (A) (A) (A)
                 (A) (A) (A) (A)
 The electronic state of the initial guess is 1-A.
 Requested convergence on RMS density matrix=1.00D-08 within 128 cycles.
 Requested convergence on MAX density matrix=1.00D-06.
 Requested convergence on             energy=1.00D-06.
 No special actions if energy rises.
 Keep R1 integrals in memory in canonical form, NReq=     3442414.
 Integral accuracy reduced to 1.0D-05 until final iterations.
 Initial convergence to 1.0D-05 achieved.  Increase integral accuracy.
 SCF Done:  E(RB+HF-LYP) =  -229.048391647     A.U. after   14 cycles
             Convg  =    0.4750D-08             -V/T =  2.0097
             S**2   =   0.0000

 **********************************************************************

            Population analysis using the SCF density.

 **********************************************************************

 Orbital symmetries:
       Occupied  (A) (A) (A) (A) (A) (A) (A) (A) (A) (A) (A) (A)
                 (A) (A) (A) (A)
       Virtual   (A) (A) (A) (A) (A) (A) (A) (A) (A) (A) (A) (A)
                 (A) (A) (A) (A) (A) (A) (A) (A) (A) (A) (A) (A)
                 (A) (A) (A) (A) (A) (A) (A) (A) (A) (A) (A) (A)
                 (A) (A) (A) (A) (A) (A) (A) (A) (A) (A) (A) (A)
                 (A) (A) (A) (A)
 The electronic state is 1-A.
 Alpha  occ. eigenvalues --  -19.17882 -19.14981 -10.33732 -10.20400  -1.06853
 Alpha  occ. eigenvalues --   -0.99771  -0.75691  -0.60460  -0.50092  -0.46395
 Alpha  occ. eigenvalues --   -0.45238  -0.42937  -0.40447  -0.34201  -0.31494
 Alpha  occ. eigenvalues --   -0.27095
 Alpha virt. eigenvalues --   -0.03097   0.06001   0.12049   0.14163   0.17128
 Alpha virt. eigenvalues --    0.18903   0.27830   0.31597   0.51713   0.53059
 Alpha virt. eigenvalues --    0.56468   0.61064   0.62025   0.63876   0.76221
 Alpha virt. eigenvalues --    0.79326   0.84725   0.85615   0.91376   0.93817
 Alpha virt. eigenvalues --    0.95371   1.00763   1.01771   1.08017   1.10065
 Alpha virt. eigenvalues --    1.17435   1.37471   1.42044   1.48681   1.54190
 Alpha virt. eigenvalues --    1.71945   1.72779   1.76685   1.79750   1.82844
 Alpha virt. eigenvalues --    1.89199   1.91718   2.00140   2.20873   2.24169
 Alpha virt. eigenvalues --    2.31301   2.35522   2.43380   2.55942   2.58121
 Alpha virt. eigenvalues --    2.76912   2.89637   2.95530   3.72598   3.93644
 Alpha virt. eigenvalues --    4.09036   4.40058
          Condensed to atoms (all electrons):
              1          2          3          4          5          6
     1  C    4.431065   0.324704  -0.021169  -0.019158  -0.018072   0.516284
     2  C    0.324704   5.273904   0.339010   0.370192   0.368228  -0.083386
     3  H   -0.021169   0.339010   0.547061  -0.026382  -0.023877   0.003863
     4  H   -0.019158   0.370192  -0.026382   0.497586  -0.019177  -0.001224
     5  H   -0.018072   0.368228  -0.023877  -0.019177   0.488494  -0.000310
     6  O    0.516284  -0.083386   0.003863  -0.001224  -0.000310   8.041251
     7  O    0.265022  -0.085946   0.007884   0.001790   0.001913  -0.072356
     8  H   -0.008797   0.005235  -0.000642  -0.000386  -0.000034   0.000942
              7          8
     1  C    0.265022  -0.008797
     2  C   -0.085946   0.005235
     3  H    0.007884  -0.000642
     4  H    0.001790  -0.000386
     5  H    0.001913  -0.000034
     6  O   -0.072356   0.000942
     7  O    8.257851   0.230103
     8  H    0.230103   0.354280
 Mulliken atomic charges:
              1
     1  C    0.530121
     2  C   -0.511942
     3  H    0.174252
     4  H    0.196758
     5  H    0.202835
     6  O   -0.405063
     7  O   -0.606260
     8  H    0.419298
 Sum of Mulliken charges=   0.00000
 Atomic charges with hydrogens summed into heavy atoms:
              1
     1  C    0.530121
     2  C    0.061903
     3  H    0.000000
     4  H    0.000000
     5  H    0.000000
     6  O   -0.405063
     7  O   -0.186962
     8  H    0.000000
 Sum of Mulliken charges=   0.00000
 Electronic spatial extent (au):  <R**2>=   267.2882
 Charge=     0.0000 electrons
 Dipole moment (field-independent basis, Debye):
    X=    -1.3079    Y=    -2.3055    Z=     1.5429  Tot=     3.0670
 Quadrupole moment (field-independent basis, Debye-Ang):
   XX=   -21.3254   YY=   -26.9317   ZZ=   -21.1168
   XY=    -0.9649   XZ=     2.7366   YZ=    -1.8134
 Traceless Quadrupole moment (field-independent basis, Debye-Ang):
   XX=     1.7992   YY=    -3.8071   ZZ=     2.0079
   XY=    -0.9649   XZ=     2.7366   YZ=    -1.8134
 Octapole moment (field-independent basis, Debye-Ang**2):
  XXX=     4.6420  YYY=    -4.5369  ZZZ=     1.5538  XYY=     1.4155
  XXY=    -1.6042  XXZ=     4.3205  XZZ=     2.5314  YZZ=    -0.3862
  YYZ=     1.7753  XYZ=    -2.6435
 Hexadecapole moment (field-independent basis, Debye-Ang**3):
 XXXX=  -160.9180 YYYY=  -123.3881 ZZZZ=   -25.3494 XXXY=    -8.3966
 XXXZ=     7.8425 YYYX=    -3.7674 YYYZ=    -2.3946 ZZZX=     2.4349
 ZZZY=    -1.6346 XXYY=   -46.7489 XXZZ=   -27.2590 YYZZ=   -23.3140
 XXYZ=    -4.3365 YYXZ=     3.0486 ZZXY=    -3.2539
 N-N= 1.171110184304D+02 E-N=-7.710942096591D+02  KE= 2.268463662215D+02
 ***** Axes restored to original set *****
 -------------------------------------------------------------------
 Center     Atomic                   Forces (Hartrees/Bohr)
 Number     Number              X              Y              Z
 -------------------------------------------------------------------
    1          6          -0.060754089    0.007391818   -0.045582888
    2          6           0.019926135   -0.003187098   -0.032103470
    3          1           0.014593046   -0.000416909    0.008342722
    4          1          -0.009904419    0.012931184    0.003515009
    5          1          -0.009567851   -0.012650791    0.004440548
    6          8           0.071330770   -0.000991627    0.036201063
    7          8          -0.025131050   -0.013989496    0.029777621
    8          1          -0.000492543    0.010912919   -0.004590606
 -------------------------------------------------------------------
 Cartesian Forces:  Max     0.071330770 RMS     0.026098382

 GradGradGradGradGradGradGradGradGradGradGradGradGradGradGradGradGradGrad
 Berny optimization.
 Internal  Forces:  Max     0.079883497 RMS     0.019420902
 Search for a local minimum.
 Step number   1 out of a maximum of  35
 All quantities printed in internal units (Hartrees-Bohrs-Radians)
 Second derivative matrix not updated -- first step.
     Eigenvalues ---    0.00237   0.00503   0.01295   0.07243   0.07243
     Eigenvalues ---    0.16000   0.16000   0.16000   0.16000   0.25000
     Eigenvalues ---    0.25000   0.28519   0.37230   0.37230   0.37230
     Eigenvalues ---    0.40989   0.55473   0.802091000.000001000.00000
     Eigenvalues --- 1000.000001000.000001000.000001000.000001000.00000
 RFO step:  Lambda=-1.73355320D-02.
 Linear search not attempted -- first point.
 Iteration  1 RMS(Cart)=  0.04953441 RMS(Int)=  0.00276657
 Iteration  2 RMS(Cart)=  0.00281200 RMS(Int)=  0.00062045
 Iteration  3 RMS(Cart)=  0.00001008 RMS(Int)=  0.00062040
 Iteration  4 RMS(Cart)=  0.00000000 RMS(Int)=  0.00062040
 Variable       Old X    -DE/DX   Delta X   Delta X   Delta X     New X
                                 (Linear)    (Quad)   (Total)
    R1        2.91018  -0.01581   0.00000  -0.05225  -0.05225   2.85793
    R2        2.37803  -0.07988   0.00000  -0.09749  -0.09749   2.28054
    R3        2.70231  -0.03477   0.00000  -0.08137  -0.08137   2.62093
    R4        2.02201   0.01654   0.00000   0.04245   0.04245   2.06445
    R5        2.02201   0.01640   0.00000   0.04209   0.04209   2.06409
    R6        2.02201   0.01632   0.00000   0.04189   0.04189   2.06390
    R7        1.81414   0.01125   0.00000   0.01966   0.01966   1.83380
    A1        2.09241   0.01402   0.00000   0.05243   0.05088   2.14330
    A2        2.09241  -0.01814   0.00000  -0.06787  -0.06936   2.02306
    A3        2.09836   0.00413   0.00000   0.01544   0.01400   2.11235
    A4        1.91063   0.00613   0.00000   0.04148   0.04152   1.95215
    A5        1.91063  -0.00395   0.00000  -0.02575  -0.02600   1.88463
    A6        1.91063  -0.00231   0.00000  -0.01647  -0.01679   1.89384
    A7        1.91063   0.00046   0.00000   0.00944   0.00955   1.92019
    A8        1.91063  -0.00033   0.00000   0.00506   0.00502   1.91566
    A9        1.91063   0.00000   0.00000  -0.01376  -0.01443   1.89620
   A10        1.91114  -0.00364   0.00000  -0.02055  -0.02055   1.89059
    D1        3.14159  -0.00120   0.00000  -0.05428  -0.05446   3.08713
    D2       -1.04720   0.00071   0.00000  -0.03309  -0.03366  -1.08086
    D3        1.04720  -0.00313   0.00000  -0.07580  -0.07577   0.97142
    D4        0.00000   0.00104   0.00000   0.04589   0.04620   0.04620
    D5        2.09439   0.00295   0.00000   0.06709   0.06700   2.16140
    D6       -2.09440  -0.00089   0.00000   0.02438   0.02489  -2.06951
    D7       -1.66744  -0.00382   0.00000  -0.13918  -0.13829  -1.80573
    D8        1.47415  -0.00157   0.00000  -0.03866  -0.03955   1.43460
         Item               Value     Threshold  Converged?
 Maximum Force            0.079883     0.000450     NO 
 RMS     Force            0.019421     0.000300     NO 
 Maximum Displacement     0.145681     0.001800     NO 
 RMS     Displacement     0.049923     0.001200     NO 
 Predicted change in Energy=-9.299708D-03
 GradGradGradGradGradGradGradGradGradGradGradGradGradGradGradGradGradGrad

                          Input orientation:                          
 ---------------------------------------------------------------------
 Center     Atomic     Atomic              Coordinates (Angstroms)
 Number     Number      Type              X           Y           Z
 ---------------------------------------------------------------------
    1          6             0       -0.017882    0.035809    0.002989
    2          6             0        0.020273    0.004410    1.514532
    3          1             0        1.044185   -0.005315    1.895296
    4          1             0       -0.507522    0.886629    1.883556
    5          1             0       -0.509224   -0.887599    1.856264
    6          8             0       -1.047029   -0.004546   -0.625996
    7          8             0        1.212491   -0.010784   -0.635455
    8          1             0        1.427644    0.882113   -0.948705
 ---------------------------------------------------------------------
                    Distance matrix (angstroms):
                    1          2          3          4          5
     1  C    0.000000
     2  C    1.512351   0.000000
     3  H    2.170369   1.092461   0.000000
     4  H    2.121362   1.092271   1.789831   0.000000
     5  H    2.128081   1.092166   1.786904   1.774438   0.000000
     6  O    1.206812   2.391877   3.275681   2.717188   2.688984
     7  O    1.386939   2.458467   2.536347   3.179499   3.153058
     8  H    1.926524   2.969612   3.003816   3.430246   3.840728
                    6          7          8
     6  O    0.000000
     7  O    2.259549   0.000000
     8  H    2.648455   0.970403   0.000000
 Stoichiometry    C2H4O2
 Framework group  C1[X(C2H4O2)]
 Deg. of freedom    18
 Full point group                 C1      NOp   1
 Largest Abelian subgroup         C1      NOp   1
 Largest concise Abelian subgroup C1      NOp   1
                         Standard orientation:                         
 ---------------------------------------------------------------------
 Center     Atomic     Atomic              Coordinates (Angstroms)
 Number     Number      Type              X           Y           Z
 ---------------------------------------------------------------------
    1          6             0        0.078009    0.132794    0.007014
    2          6             0       -1.359782   -0.336192    0.010819
    3          1             0       -1.432403   -1.425111   -0.038710
    4          1             0       -1.831075    0.028735    0.926116
    5          1             0       -1.871412    0.107333   -0.846121
    6          8             0        0.384979    1.299895    0.000714
    7          8             0        1.039008   -0.859875   -0.114178
    8          1             0        1.433634   -1.010729    0.759432
 ---------------------------------------------------------------------
 Rotational constants (GHZ):     11.0470479      9.1717042      5.2544796
 Standard basis: 6-31G(d) (6D, 7F)
 There are    68 symmetry adapted basis functions of A   symmetry.
 Integral buffers will be    262144 words long.
 Raffenetti 2 integral format.
 Two-electron integral symmetry is turned on.
    68 basis functions,   128 primitive gaussians,    68 cartesian basis functions
    16 alpha electrons       16 beta electrons
       nuclear repulsion energy       119.8744608828 Hartrees.
 NAtoms=    8 NActive=    8 NUniq=    8 SFac= 1.00D+00 NAtFMM=   60 Big=F
 One-electron integrals computed using PRISM.
 NBasis=    68 RedAO= T  NBF=    68
 NBsUse=    68 1.00D-06 NBFU=    68
 Initial guess read from the read-write file:
 Initial guess orbital symmetries:
       Occupied  (A) (A) (A) (A) (A) (A) (A) (A) (A) (A) (A) (A)
                 (A) (A) (A) (A)
       Virtual   (A) (A) (A) (A) (A) (A) (A) (A) (A) (A) (A) (A)
                 (A) (A) (A) (A) (A) (A) (A) (A) (A) (A) (A) (A)
                 (A) (A) (A) (A) (A) (A) (A) (A) (A) (A) (A) (A)
                 (A) (A) (A) (A) (A) (A) (A) (A) (A) (A) (A) (A)
                 (A) (A) (A) (A)
 Harris functional with IExCor=  402 diagonalized for initial guess.
 ExpMin= 1.61D-01 ExpMax= 5.48D+03 ExpMxC= 8.25D+02 IAcc=1 IRadAn=         1 AccDes= 1.00D-06
 HarFok:  IExCor= 402 AccDes= 1.00D-06 IRadAn=         1 IDoV=1
 ScaDFX=  1.000000  1.000000  1.000000  1.000000
 Requested convergence on RMS density matrix=1.00D-08 within 128 cycles.
 Requested convergence on MAX density matrix=1.00D-06.
 Requested convergence on             energy=1.00D-06.
 No special actions if energy rises.
 Keep R1 integrals in memory in canonical form, NReq=     3442409.
 Integral accuracy reduced to 1.0D-05 until final iterations.
 Initial convergence to 1.0D-05 achieved.  Increase integral accuracy.
 SCF Done:  E(RB+HF-LYP) =  -229.057968144     A.U. after   13 cycles
             Convg  =    0.8312D-08             -V/T =  2.0088
             S**2   =   0.0000
 ***** Axes restored to original set *****
 -------------------------------------------------------------------
 Center     Atomic                   Forces (Hartrees/Bohr)
 Number     Number              X              Y              Z
 -------------------------------------------------------------------
    1          6          -0.009857304   -0.010791814   -0.008298399
    2          6           0.007274532    0.000592928   -0.002768759
    3          1          -0.001052352    0.000158664    0.000480732
    4          1          -0.001536445    0.000084580    0.002767349
    5          1          -0.001620706    0.000045072    0.001631613
    6          8           0.003030859    0.005464508    0.002566298
    7          8           0.003698850    0.005425125    0.009441010
    8          1           0.000062567   -0.000979064   -0.005819844
 -------------------------------------------------------------------
 Cartesian Forces:  Max     0.010791814 RMS     0.004885447

 GradGradGradGradGradGradGradGradGradGradGradGradGradGradGradGradGradGrad
 Berny optimization.
 Internal  Forces:  Max     0.006750244 RMS     0.002830477
 Search for a local minimum.
 Step number   2 out of a maximum of  35
 All quantities printed in internal units (Hartrees-Bohrs-Radians)
 Update second derivatives using D2CorX and points  1  2
 Trust test= 1.03D+00 RLast= 2.71D-01 DXMaxT set to 4.24D-01
     Eigenvalues ---    0.00237   0.00583   0.01209   0.06987   0.07443
     Eigenvalues ---    0.15857   0.16000   0.16000   0.16393   0.23213
     Eigenvalues ---    0.25042   0.29064   0.36993   0.37230   0.37542
     Eigenvalues ---    0.42594   0.55396   0.782141000.000001000.00000
     Eigenvalues --- 1000.000001000.000001000.000001000.000001000.00000
 RFO step:  Lambda=-4.95922258D-03.
 Quartic linear search produced a step of  0.06003.
 Maximum step size (   0.424) exceeded in Quadratic search.
    -- Step size scaled by   0.734
 Iteration  1 RMS(Cart)=  0.04377262 RMS(Int)=  0.01749929
 Iteration  2 RMS(Cart)=  0.01354836 RMS(Int)=  0.00244008
 Iteration  3 RMS(Cart)=  0.00033295 RMS(Int)=  0.00241188
 Iteration  4 RMS(Cart)=  0.00000021 RMS(Int)=  0.00241188
 Variable       Old X    -DE/DX   Delta X   Delta X   Delta X     New X
                                 (Linear)    (Quad)   (Total)
    R1        2.85793   0.00217  -0.00314  -0.00318  -0.00632   2.85161
    R2        2.28054  -0.00410  -0.00585  -0.02141  -0.02726   2.25328
    R3        2.62093   0.00152  -0.00488  -0.01143  -0.01631   2.60462
    R4        2.06445  -0.00082   0.00255   0.00573   0.00827   2.07273
    R5        2.06409   0.00174   0.00253   0.01095   0.01347   2.07757
    R6        2.06390   0.00126   0.00251   0.00992   0.01243   2.07633
    R7        1.83380   0.00099   0.00118   0.00487   0.00605   1.83984
    A1        2.14330   0.00270   0.00305   0.02327   0.01937   2.16266
    A2        2.02306  -0.00675  -0.00416  -0.02587  -0.03698   1.98608
    A3        2.11235   0.00428   0.00084   0.02228   0.01616   2.12852
    A4        1.95215   0.00074   0.00249   0.01189   0.01430   1.96646
    A5        1.88463   0.00281  -0.00156   0.00850   0.00687   1.89150
    A6        1.89384   0.00102  -0.00101   0.00090  -0.00015   1.89368
    A7        1.92019  -0.00127   0.00057  -0.00222  -0.00175   1.91844
    A8        1.91566  -0.00060   0.00030  -0.00104  -0.00078   1.91487
    A9        1.89620  -0.00273  -0.00087  -0.01880  -0.01970   1.87650
   A10        1.89059   0.00474  -0.00123   0.01899   0.01775   1.90834
    D1        3.08713   0.00128  -0.00327   0.11103   0.10761  -3.08845
    D2       -1.08086   0.00202  -0.00202   0.12132   0.11920  -0.96166
    D3        0.97142   0.00088  -0.00455   0.10418   0.09951   1.07093
    D4        0.04620  -0.00150   0.00277  -0.11091  -0.10803  -0.06183
    D5        2.16140  -0.00076   0.00402  -0.10061  -0.09644   2.06496
    D6       -2.06951  -0.00190   0.00149  -0.11775  -0.11613  -2.18564
    D7       -1.80573  -0.00322  -0.00830  -0.08930  -0.09795  -1.90368
    D8        1.43460  -0.00586  -0.00237  -0.30712  -0.30914   1.12546
         Item               Value     Threshold  Converged?
 Maximum Force            0.006750     0.000450     NO 
 RMS     Force            0.002830     0.000300     NO 
 Maximum Displacement     0.118614     0.001800     NO 
 RMS     Displacement     0.054693     0.001200     NO 
 Predicted change in Energy=-2.801951D-03
 GradGradGradGradGradGradGradGradGradGradGradGradGradGradGradGradGradGrad

                          Input orientation:                          
 ---------------------------------------------------------------------
 Center     Atomic     Atomic              Coordinates (Angstroms)
 Number     Number      Type              X           Y           Z
 ---------------------------------------------------------------------
    1          6             0       -0.010180   -0.025581    0.002712
    2          6             0        0.025929   -0.009292    1.511200
    3          1             0        1.047630   -0.026271    1.909814
    4          1             0       -0.497535    0.892113    1.860685
    5          1             0       -0.531383   -0.880284    1.882705
    6          8             0       -1.012657    0.040820   -0.639485
    7          8             0        1.236254    0.019533   -0.583886
    8          1             0        1.364876    0.889678   -1.001265
 ---------------------------------------------------------------------
                    Distance matrix (angstroms):
                    1          2          3          4          5
     1  C    0.000000
     2  C    1.509008   0.000000
     3  H    2.180826   1.096839   0.000000
     4  H    2.128789   1.099401   1.798160   0.000000
     5  H    2.129916   1.098745   1.795370   1.772856   0.000000
     6  O    1.192387   2.388853   3.278447   2.690892   2.727912
     7  O    1.378307   2.419732   2.501243   3.121433   3.165167
     8  H    1.932990   2.985533   3.068223   3.414577   3.878898
                    6          7          8
     6  O    0.000000
     7  O    2.249699   0.000000
     8  H    2.550315   0.973603   0.000000
 Stoichiometry    C2H4O2
 Framework group  C1[X(C2H4O2)]
 Deg. of freedom    18
 Full point group                 C1      NOp   1
 Largest Abelian subgroup         C1      NOp   1
 Largest concise Abelian subgroup C1      NOp   1
                         Standard orientation:                         
 ---------------------------------------------------------------------
 Center     Atomic     Atomic              Coordinates (Angstroms)
 Number     Number      Type              X           Y           Z
 ---------------------------------------------------------------------
    1          6             0        0.084029    0.141272   -0.062680
    2          6             0       -1.360930   -0.284810    0.024809
    3          1             0       -1.483549   -1.374088   -0.013840
    4          1             0       -1.781465    0.106416    0.962240
    5          1             0       -1.912246    0.179878   -0.804260
    6          8             0        0.449380    1.273795    0.012788
    7          8             0        0.973156   -0.911384   -0.095822
    8          1             0        1.458379   -0.950264    0.747356
 ---------------------------------------------------------------------
 Rotational constants (GHZ):     11.0934955      9.3518720      5.3210698
 Standard basis: 6-31G(d) (6D, 7F)
 There are    68 symmetry adapted basis functions of A   symmetry.
 Integral buffers will be    262144 words long.
 Raffenetti 2 integral format.
 Two-electron integral symmetry is turned on.
    68 basis functions,   128 primitive gaussians,    68 cartesian basis functions
    16 alpha electrons       16 beta electrons
       nuclear repulsion energy       120.5186058438 Hartrees.
 NAtoms=    8 NActive=    8 NUniq=    8 SFac= 1.00D+00 NAtFMM=   60 Big=F
 One-electron integrals computed using PRISM.
 NBasis=    68 RedAO= T  NBF=    68
 NBsUse=    68 1.00D-06 NBFU=    68
 Initial guess read from the read-write file:
 Initial guess orbital symmetries:
       Occupied  (A) (A) (A) (A) (A) (A) (A) (A) (A) (A) (A) (A)
                 (A) (A) (A) (A)
       Virtual   (A) (A) (A) (A) (A) (A) (A) (A) (A) (A) (A) (A)
                 (A) (A) (A) (A) (A) (A) (A) (A) (A) (A) (A) (A)
                 (A) (A) (A) (A) (A) (A) (A) (A) (A) (A) (A) (A)
                 (A) (A) (A) (A) (A) (A) (A) (A) (A) (A) (A) (A)
                 (A) (A) (A) (A)
 Harris functional with IExCor=  402 diagonalized for initial guess.
 ExpMin= 1.61D-01 ExpMax= 5.48D+03 ExpMxC= 8.25D+02 IAcc=1 IRadAn=         1 AccDes= 1.00D-06
 HarFok:  IExCor= 402 AccDes= 1.00D-06 IRadAn=         1 IDoV=1
 ScaDFX=  1.000000  1.000000  1.000000  1.000000
 Requested convergence on RMS density matrix=1.00D-08 within 128 cycles.
 Requested convergence on MAX density matrix=1.00D-06.
 Requested convergence on             energy=1.00D-06.
 No special actions if energy rises.
 Keep R1 integrals in memory in canonical form, NReq=     3442409.
 Integral accuracy reduced to 1.0D-05 until final iterations.
 Initial convergence to 1.0D-05 achieved.  Increase integral accuracy.
 SCF Done:  E(RB+HF-LYP) =  -229.059689841     A.U. after   13 cycles
             Convg  =    0.5994D-08             -V/T =  2.0086
             S**2   =   0.0000
 ***** Axes restored to original set *****
 -------------------------------------------------------------------
 Center     Atomic                   Forces (Hartrees/Bohr)
 Number     Number              X              Y              Z
 -------------------------------------------------------------------
    1          6           0.012981498    0.017897964    0.006120090
    2          6           0.000993956   -0.011149940    0.006067926
    3          1          -0.003899783   -0.000265514   -0.001917463
    4          1           0.001275882   -0.002579523   -0.001396054
    5          1           0.000767630    0.002874305    0.002165878
    6          8          -0.019706199   -0.002540987   -0.011086353
    7          8           0.012202137    0.001934103    0.007209506
    8          1          -0.004615121   -0.006170408   -0.007163530
 -------------------------------------------------------------------
 Cartesian Forces:  Max     0.019706199 RMS     0.008073017

 GradGradGradGradGradGradGradGradGradGradGradGradGradGradGradGradGradGrad
 Berny optimization.
 Internal  Forces:  Max     0.022396240 RMS     0.006018653
 Search for a local minimum.
 Step number   3 out of a maximum of  35
 All quantities printed in internal units (Hartrees-Bohrs-Radians)
 Update second derivatives using D2CorX and points  1  2  3
 Trust test= 6.14D-01 RLast= 4.24D-01 DXMaxT set to 4.24D-01
     Eigenvalues ---    0.00224   0.00257   0.03407   0.06876   0.07531
     Eigenvalues ---    0.15610   0.16000   0.16161   0.17388   0.23301
     Eigenvalues ---    0.25008   0.29198   0.37066   0.37257   0.38038
     Eigenvalues ---    0.43656   0.55744   1.033651000.000001000.00000
     Eigenvalues --- 1000.000001000.000001000.000001000.000001000.00000
 RFO step:  Lambda=-7.89468852D-03.
 Quartic linear search produced a step of -0.09191.
 Maximum step size (   0.424) exceeded in Quadratic search.
    -- Step size scaled by   0.545
 Iteration  1 RMS(Cart)=  0.04946832 RMS(Int)=  0.02228492
 Iteration  2 RMS(Cart)=  0.02216028 RMS(Int)=  0.00093409
 Iteration  3 RMS(Cart)=  0.00082606 RMS(Int)=  0.00016447
 Iteration  4 RMS(Cart)=  0.00000081 RMS(Int)=  0.00016447
 Variable       Old X    -DE/DX   Delta X   Delta X   Delta X     New X
                                 (Linear)    (Quad)   (Total)
    R1        2.85161   0.00478   0.00058  -0.00746  -0.00688   2.84473
    R2        2.25328   0.02240   0.00251  -0.03405  -0.03155   2.22173
    R3        2.60462   0.00670   0.00150  -0.02206  -0.02056   2.58406
    R4        2.07273  -0.00433  -0.00076   0.01044   0.00968   2.08240
    R5        2.07757  -0.00316  -0.00124   0.01762   0.01639   2.09395
    R6        2.07633  -0.00194  -0.00114   0.01714   0.01600   2.09232
    R7        1.83984  -0.00305  -0.00056   0.00757   0.00701   1.84686
    A1        2.16266  -0.00028  -0.00178   0.02811   0.02678   2.18944
    A2        1.98608  -0.00042   0.00340  -0.04986  -0.04601   1.94007
    A3        2.12852   0.00145  -0.00149   0.02345   0.02241   2.15093
    A4        1.96646  -0.00114  -0.00131   0.01831   0.01688   1.98334
    A5        1.89150  -0.00133  -0.00063   0.00375   0.00307   1.89457
    A6        1.89368   0.00480   0.00001   0.00658   0.00652   1.90020
    A7        1.91844   0.00049   0.00016  -0.00227  -0.00219   1.91625
    A8        1.91487  -0.00120   0.00007  -0.00152  -0.00159   1.91329
    A9        1.87650  -0.00161   0.00181  -0.02687  -0.02506   1.85144
   A10        1.90834  -0.00061  -0.00163   0.01903   0.01740   1.92574
    D1       -3.08845  -0.00332  -0.00989  -0.01661  -0.02649  -3.11494
    D2       -0.96166  -0.00438  -0.01096  -0.00495  -0.01589  -0.97755
    D3        1.07093  -0.00441  -0.00915  -0.03120  -0.04041   1.03052
    D4       -0.06183   0.00404   0.00993   0.00091   0.01087  -0.05096
    D5        2.06496   0.00299   0.00886   0.01256   0.02147   2.08643
    D6       -2.18564   0.00295   0.01067  -0.01368  -0.00304  -2.18868
    D7       -1.90368  -0.01227   0.00900  -0.30073  -0.29165  -2.19533
    D8        1.12546  -0.00520   0.02841  -0.28312  -0.25479   0.87067
         Item               Value     Threshold  Converged?
 Maximum Force            0.022396     0.000450     NO 
 RMS     Force            0.006019     0.000300     NO 
 Maximum Displacement     0.229428     0.001800     NO 
 RMS     Displacement     0.069344     0.001200     NO 
 Predicted change in Energy=-3.834043D-03
 GradGradGradGradGradGradGradGradGradGradGradGradGradGradGradGradGradGrad

                          Input orientation:                          
 ---------------------------------------------------------------------
 Center     Atomic     Atomic              Coordinates (Angstroms)
 Number     Number      Type              X           Y           Z
 ---------------------------------------------------------------------
    1          6             0       -0.007334    0.012415    0.010296
    2          6             0        0.027226   -0.013828    1.515037
    3          1             0        1.046525   -0.034495    1.933272
    4          1             0       -0.516614    0.873402    1.895677
    5          1             0       -0.538702   -0.896417    1.870955
    6          8             0       -0.979765    0.062115   -0.648611
    7          8             0        1.255340    0.069609   -0.511472
    8          1             0        1.336259    0.827915   -1.122673
 ---------------------------------------------------------------------
                    Distance matrix (angstroms):
                    1          2          3          4          5
     1  C    0.000000
     2  C    1.505367   0.000000
     3  H    2.193321   1.101961   0.000000
     4  H    2.134321   1.108073   1.808064   0.000000
     5  H    2.137845   1.107210   1.805474   1.770129   0.000000
     6  O    1.175691   2.387713   3.283490   2.710368   2.731580
     7  O    1.367427   2.371068   2.455854   3.095201   3.134924
     8  H    1.937498   3.062615   3.188495   3.541982   3.930726
                    6          7          8
     6  O    0.000000
     7  O    2.239320   0.000000
     8  H    2.484985   0.977314   0.000000
 Stoichiometry    C2H4O2
 Framework group  C1[X(C2H4O2)]
 Deg. of freedom    18
 Full point group                 C1      NOp   1
 Largest Abelian subgroup         C1      NOp   1
 Largest concise Abelian subgroup C1      NOp   1
                         Standard orientation:                         
 ---------------------------------------------------------------------
 Center     Atomic     Atomic              Coordinates (Angstroms)
 Number     Number      Type              X           Y           Z
 ---------------------------------------------------------------------
    1          6             0        0.094042    0.149041   -0.047167
    2          6             0       -1.361073   -0.229755    0.025517
    3          1             0       -1.537150   -1.316832   -0.014204
    4          1             0       -1.787170    0.185459    0.960324
    5          1             0       -1.901873    0.265091   -0.804289
    6          8             0        0.516632    1.244999    0.003264
    7          8             0        0.891803   -0.960973   -0.083257
    8          1             0        1.560894   -0.921645    0.628019
 ---------------------------------------------------------------------
 Rotational constants (GHZ):     11.1757944      9.5505527      5.3792608
 Standard basis: 6-31G(d) (6D, 7F)
 There are    68 symmetry adapted basis functions of A   symmetry.
 Integral buffers will be    262144 words long.
 Raffenetti 2 integral format.
 Two-electron integral symmetry is turned on.
    68 basis functions,   128 primitive gaussians,    68 cartesian basis functions
    16 alpha electrons       16 beta electrons
       nuclear repulsion energy       121.2328911191 Hartrees.
 NAtoms=    8 NActive=    8 NUniq=    8 SFac= 1.00D+00 NAtFMM=   60 Big=F
 One-electron integrals computed using PRISM.
 NBasis=    68 RedAO= T  NBF=    68
 NBsUse=    68 1.00D-06 NBFU=    68
 Initial guess read from the read-write file:
 Initial guess orbital symmetries:
       Occupied  (A) (A) (A) (A) (A) (A) (A) (A) (A) (A) (A) (A)
                 (A) (A) (A) (A)
       Virtual   (A) (A) (A) (A) (A) (A) (A) (A) (A) (A) (A) (A)
                 (A) (A) (A) (A) (A) (A) (A) (A) (A) (A) (A) (A)
                 (A) (A) (A) (A) (A) (A) (A) (A) (A) (A) (A) (A)
                 (A) (A) (A) (A) (A) (A) (A) (A) (A) (A) (A) (A)
                 (A) (A) (A) (A)
 Harris functional with IExCor=  402 diagonalized for initial guess.
 ExpMin= 1.61D-01 ExpMax= 5.48D+03 ExpMxC= 8.25D+02 IAcc=1 IRadAn=         1 AccDes= 1.00D-06
 HarFok:  IExCor= 402 AccDes= 1.00D-06 IRadAn=         1 IDoV=1
 ScaDFX=  1.000000  1.000000  1.000000  1.000000
 Requested convergence on RMS density matrix=1.00D-08 within 128 cycles.
 Requested convergence on MAX density matrix=1.00D-06.
 Requested convergence on             energy=1.00D-06.
 No special actions if energy rises.
 Keep R1 integrals in memory in canonical form, NReq=     3442555.
 Integral accuracy reduced to 1.0D-05 until final iterations.
 Initial convergence to 1.0D-05 achieved.  Increase integral accuracy.
 SCF Done:  E(RB+HF-LYP) =  -229.063886716     A.U. after   13 cycles
             Convg  =    0.3844D-08             -V/T =  2.0084
             S**2   =   0.0000
 ***** Axes restored to original set *****
 -------------------------------------------------------------------
 Center     Atomic                   Forces (Hartrees/Bohr)
 Number     Number              X              Y              Z
 -------------------------------------------------------------------
    1          6           0.040515218    0.009397724    0.027305941
    2          6          -0.006753611   -0.011041306    0.015854637
    3          1          -0.006988061    0.000120237   -0.004600198
    4          1           0.004759179   -0.005543655   -0.003774056
    5          1           0.003887030    0.005890826   -0.000302268
    6          8          -0.047180873    0.002379414   -0.030238894
    7          8           0.018009570    0.010603988    0.001935164
    8          1          -0.006248451   -0.011807228   -0.006180326
 -------------------------------------------------------------------
 Cartesian Forces:  Max     0.047180873 RMS     0.016937525

 GradGradGradGradGradGradGradGradGradGradGradGradGradGradGradGradGradGrad
 Berny optimization.
 Internal  Forces:  Max     0.056070442 RMS     0.012633461
 Search for a local minimum.
 Step number   4 out of a maximum of  35
 All quantities printed in internal units (Hartrees-Bohrs-Radians)
 Update second derivatives using D2CorX and points  3  4
 Trust test= 1.09D+00 RLast= 4.00D-01 DXMaxT set to 6.00D-01
     Eigenvalues ---    0.00060   0.00239   0.02652   0.06641   0.07556
     Eigenvalues ---    0.15902   0.16042   0.16138   0.17291   0.25036
     Eigenvalues ---    0.26117   0.29016   0.37206   0.37258   0.38623
     Eigenvalues ---    0.43352   0.55651   2.780731000.000001000.00000
     Eigenvalues --- 1000.000001000.000001000.000001000.000001000.00000
 RFO step:  Lambda=-6.71848676D-03.
 Quartic linear search produced a step of  1.05450.
 Iteration  1 RMS(Cart)=  0.06905532 RMS(Int)=  0.09430387
 Iteration  2 RMS(Cart)=  0.05881728 RMS(Int)=  0.03670069
 Iteration  3 RMS(Cart)=  0.03439130 RMS(Int)=  0.00346155
 Iteration  4 RMS(Cart)=  0.00223860 RMS(Int)=  0.00253021
 Iteration  5 RMS(Cart)=  0.00000631 RMS(Int)=  0.00253021
 Iteration  6 RMS(Cart)=  0.00000000 RMS(Int)=  0.00253021
 Variable       Old X    -DE/DX   Delta X   Delta X   Delta X     New X
                                 (Linear)    (Quad)   (Total)
    R1        2.84473   0.00724  -0.00725   0.01411   0.00685   2.85158
    R2        2.22173   0.05607  -0.03327   0.01953  -0.01373   2.20800
    R3        2.58406   0.01243  -0.02168   0.00551  -0.01617   2.56789
    R4        2.08240  -0.00821   0.01021  -0.00792   0.00229   2.08469
    R5        2.09395  -0.00807   0.01728  -0.00010   0.01718   2.11114
    R6        2.09232  -0.00678   0.01687   0.00172   0.01859   2.11092
    R7        1.84686  -0.00581   0.00740  -0.00099   0.00640   1.85326
    A1        2.18944  -0.00405   0.02824   0.01621   0.03719   2.22663
    A2        1.94007   0.00625  -0.04852  -0.02426  -0.08003   1.86004
    A3        2.15093  -0.00183   0.02364   0.02042   0.03679   2.18772
    A4        1.98334  -0.00297   0.01780  -0.00109   0.01621   1.99955
    A5        1.89457  -0.00161   0.00324  -0.00111   0.00209   1.89666
    A6        1.90020   0.00402   0.00687   0.02717   0.03362   1.93382
    A7        1.91625   0.00097  -0.00231  -0.00553  -0.00796   1.90829
    A8        1.91329  -0.00029  -0.00167  -0.00310  -0.00553   1.90776
    A9        1.85144   0.00009  -0.02642  -0.01729  -0.04364   1.80780
   A10        1.92574  -0.00371   0.01834   0.00518   0.02352   1.94926
    D1       -3.11494  -0.00216  -0.02794  -0.08279  -0.11034   3.05791
    D2       -0.97755  -0.00410  -0.01676  -0.09144  -0.10796  -1.08551
    D3        1.03052  -0.00272  -0.04261  -0.09806  -0.14083   0.88969
    D4       -0.05096   0.00304   0.01146   0.09299   0.10454   0.05357
    D5        2.08643   0.00110   0.02264   0.08434   0.10691   2.19334
    D6       -2.18868   0.00248  -0.00321   0.07771   0.07404  -2.11464
    D7       -2.19533  -0.01404  -0.30754  -0.32061  -0.62767  -2.82300
    D8        0.87067  -0.00911  -0.26868  -0.14957  -0.41873   0.45194
         Item               Value     Threshold  Converged?
 Maximum Force            0.056070     0.000450     NO 
 RMS     Force            0.012633     0.000300     NO 
 Maximum Displacement     0.433389     0.001800     NO 
 RMS     Displacement     0.154105     0.001200     NO 
 Predicted change in Energy=-1.018948D-02
 GradGradGradGradGradGradGradGradGradGradGradGradGradGradGradGradGradGrad

                          Input orientation:                          
 ---------------------------------------------------------------------
 Center     Atomic     Atomic              Coordinates (Angstroms)
 Number     Number      Type              X           Y           Z
 ---------------------------------------------------------------------
    1          6             0       -0.019503    0.157468    0.022044
    2          6             0        0.026672   -0.013195    1.520644
    3          1             0        1.041986   -0.005859    1.952005
    4          1             0       -0.581269    0.797059    1.991765
    5          1             0       -0.499147   -0.949037    1.829693
    6          8             0       -0.957885    0.106828   -0.672281
    7          8             0        1.270444    0.208877   -0.402129
    8          1             0        1.341636    0.598575   -1.299260
 ---------------------------------------------------------------------
                    Distance matrix (angstroms):
                    1          2          3          4          5
     1  C    0.000000
     2  C    1.508993   0.000000
     3  H    2.208661   1.103172   0.000000
     4  H    2.145800   1.117166   1.811412   0.000000
     5  H    2.173018   1.117048   1.810976   1.755524   0.000000
     6  O    1.168423   2.406799   3.301373   2.777662   2.754119
     7  O    1.358870   2.300726   2.374921   3.083103   3.074613
     8  H    1.947594   3.171001   3.320520   3.816780   3.946382
                    6          7          8
     6  O    0.000000
     7  O    2.246964   0.000000
     8  H    2.433663   0.980702   0.000000
 Stoichiometry    C2H4O2
 Framework group  C1[X(C2H4O2)]
 Deg. of freedom    18
 Full point group                 C1      NOp   1
 Largest Abelian subgroup         C1      NOp   1
 Largest concise Abelian subgroup C1      NOp   1
                         Standard orientation:                         
 ---------------------------------------------------------------------
 Center     Atomic     Atomic              Coordinates (Angstroms)
 Number     Number      Type              X           Y           Z
 ---------------------------------------------------------------------
    1          6             0        0.118176    0.158076    0.033916
    2          6             0       -1.364468   -0.121224    0.005308
    3          1             0       -1.629114   -1.191950   -0.016969
    4          1             0       -1.835928    0.357866    0.897641
    5          1             0       -1.849174    0.397041   -0.857396
    6          8             0        0.648467    1.197963   -0.017466
    7          8             0        0.741195   -1.046905   -0.046066
    8          1             0        1.674672   -0.992534    0.249636
 ---------------------------------------------------------------------
 Rotational constants (GHZ):     11.1931526      9.7242407      5.3881313
 Standard basis: 6-31G(d) (6D, 7F)
 There are    68 symmetry adapted basis functions of A   symmetry.
 Integral buffers will be    262144 words long.
 Raffenetti 2 integral format.
 Two-electron integral symmetry is turned on.
    68 basis functions,   128 primitive gaussians,    68 cartesian basis functions
    16 alpha electrons       16 beta electrons
       nuclear repulsion energy       121.5450619081 Hartrees.
 NAtoms=    8 NActive=    8 NUniq=    8 SFac= 1.00D+00 NAtFMM=   60 Big=F
 One-electron integrals computed using PRISM.
 NBasis=    68 RedAO= T  NBF=    68
 NBsUse=    68 1.00D-06 NBFU=    68
 Initial guess read from the read-write file:
 Initial guess orbital symmetries:
       Occupied  (A) (A) (A) (A) (A) (A) (A) (A) (A) (A) (A) (A)
                 (A) (A) (A) (A)
       Virtual   (A) (A) (A) (A) (A) (A) (A) (A) (A) (A) (A) (A)
                 (A) (A) (A) (A) (A) (A) (A) (A) (A) (A) (A) (A)
                 (A) (A) (A) (A) (A) (A) (A) (A) (A) (A) (A) (A)
                 (A) (A) (A) (A) (A) (A) (A) (A) (A) (A) (A) (A)
                 (A) (A) (A) (A)
 Harris functional with IExCor=  402 diagonalized for initial guess.
 ExpMin= 1.61D-01 ExpMax= 5.48D+03 ExpMxC= 8.25D+02 IAcc=1 IRadAn=         1 AccDes= 1.00D-06
 HarFok:  IExCor= 402 AccDes= 1.00D-06 IRadAn=         1 IDoV=1
 ScaDFX=  1.000000  1.000000  1.000000  1.000000
 Requested convergence on RMS density matrix=1.00D-08 within 128 cycles.
 Requested convergence on MAX density matrix=1.00D-06.
 Requested convergence on             energy=1.00D-06.
 No special actions if energy rises.
 Keep R1 integrals in memory in canonical form, NReq=     3442555.
 Integral accuracy reduced to 1.0D-05 until final iterations.
 Initial convergence to 1.0D-05 achieved.  Increase integral accuracy.
 SCF Done:  E(RB+HF-LYP) =  -229.071369622     A.U. after   14 cycles
             Convg  =    0.3201D-08             -V/T =  2.0084
             S**2   =   0.0000
 ***** Axes restored to original set *****
 -------------------------------------------------------------------
 Center     Atomic                   Forces (Hartrees/Bohr)
 Number     Number              X              Y              Z
 -------------------------------------------------------------------
    1          6           0.062041767   -0.019917539    0.045928505
    2          6          -0.020711439   -0.000051108    0.025617818
    3          1          -0.007599845    0.000809165   -0.006795714
    4          1           0.008766910   -0.006745869   -0.005283106
    5          1           0.007389378    0.008869218   -0.007183463
    6          8          -0.057889974    0.008413738   -0.042513964
    7          8           0.014735808    0.018422993   -0.011219733
    8          1          -0.006732604   -0.009800597    0.001449656
 -------------------------------------------------------------------
 Cartesian Forces:  Max     0.062041767 RMS     0.024096755

 GradGradGradGradGradGradGradGradGradGradGradGradGradGradGradGradGradGrad
 Berny optimization.
 Internal  Forces:  Max     0.071391732 RMS     0.016318559
 Search for a local minimum.
 Step number   5 out of a maximum of  35
 All quantities printed in internal units (Hartrees-Bohrs-Radians)
 Update second derivatives using D2CorX and points  4  5
 Trust test= 7.34D-01 RLast= 8.09D-01 DXMaxT set to 6.00D-01
     Eigenvalues ---    0.00212   0.00255   0.02809   0.06363   0.07444
     Eigenvalues ---    0.15449   0.16026   0.16294   0.17368   0.24894
     Eigenvalues ---    0.27339   0.28805   0.37160   0.37258   0.38986
     Eigenvalues ---    0.42462   0.55514   1.959371000.000001000.00000
     Eigenvalues --- 1000.000001000.000001000.000001000.000001000.00000
 RFO step:  Lambda=-4.42585330D-03.
 Quartic linear search produced a step of  0.02134.
 Iteration  1 RMS(Cart)=  0.04119476 RMS(Int)=  0.00396830
 Iteration  2 RMS(Cart)=  0.00385907 RMS(Int)=  0.00017327
 Iteration  3 RMS(Cart)=  0.00002539 RMS(Int)=  0.00017190
 Iteration  4 RMS(Cart)=  0.00000000 RMS(Int)=  0.00017190
 Variable       Old X    -DE/DX   Delta X   Delta X   Delta X     New X
                                 (Linear)    (Quad)   (Total)
    R1        2.85158   0.00561   0.00015   0.00394   0.00409   2.85567
    R2        2.20800   0.07139  -0.00029   0.00563   0.00534   2.21334
    R3        2.56789   0.01097  -0.00035  -0.00334  -0.00368   2.56421
    R4        2.08469  -0.00965   0.00005  -0.00510  -0.00505   2.07964
    R5        2.11114  -0.01189   0.00037  -0.00379  -0.00342   2.10771
    R6        2.11092  -0.01290   0.00040  -0.00546  -0.00506   2.10585
    R7        1.85326  -0.00571   0.00014  -0.00022  -0.00009   1.85317
    A1        2.22663  -0.00852   0.00079   0.00209   0.00242   2.22905
    A2        1.86004   0.01985  -0.00171   0.01418   0.01200   1.87204
    A3        2.18772  -0.01036   0.00079  -0.00991  -0.00961   2.17811
    A4        1.99955  -0.00473   0.00035  -0.00703  -0.00670   1.99285
    A5        1.89666   0.00143   0.00004   0.00884   0.00889   1.90555
    A6        1.93382  -0.00380   0.00072  -0.00431  -0.00362   1.93021
    A7        1.90829   0.00082  -0.00017   0.00187   0.00171   1.91000
    A8        1.90776   0.00323  -0.00012   0.00052   0.00036   1.90812
    A9        1.80780   0.00398  -0.00093   0.00110   0.00017   1.80797
   A10        1.94926  -0.01018   0.00050  -0.02637  -0.02587   1.92340
    D1        3.05791   0.00307  -0.00235   0.01678   0.01450   3.07241
    D2       -1.08551   0.00194  -0.00230   0.02105   0.01880  -1.06672
    D3        0.88969   0.00546  -0.00301   0.02500   0.02203   0.91172
    D4        0.05357  -0.00400   0.00223  -0.03198  -0.02978   0.02379
    D5        2.19334  -0.00513   0.00228  -0.02771  -0.02549   2.16785
    D6       -2.11464  -0.00161   0.00158  -0.02376  -0.02226  -2.13690
    D7       -2.82300  -0.00425  -0.01340  -0.13623  -0.14976  -2.97276
    D8        0.45194  -0.01122  -0.00894  -0.18474  -0.19355   0.25839
         Item               Value     Threshold  Converged?
 Maximum Force            0.071392     0.000450     NO 
 RMS     Force            0.016319     0.000300     NO 
 Maximum Displacement     0.120126     0.001800     NO 
 RMS     Displacement     0.040755     0.001200     NO 
 Predicted change in Energy=-2.382400D-03
 GradGradGradGradGradGradGradGradGradGradGradGradGradGradGradGradGradGrad

                          Input orientation:                          
 ---------------------------------------------------------------------
 Center     Atomic     Atomic              Coordinates (Angstroms)
 Number     Number      Type              X           Y           Z
 ---------------------------------------------------------------------
    1          6             0       -0.004917    0.165603    0.028152
    2          6             0        0.024100   -0.014585    1.528247
    3          1             0        1.034649   -0.005478    1.963916
    4          1             0       -0.592830    0.782919    2.005113
    5          1             0       -0.494818   -0.956627    1.819970
    6          8             0       -0.937217    0.129698   -0.679909
    7          8             0        1.282041    0.264178   -0.390483
    8          1             0        1.311928    0.535008   -1.332525
 ---------------------------------------------------------------------
                    Distance matrix (angstroms):
                    1          2          3          4          5
     1  C    0.000000
     2  C    1.511157   0.000000
     3  H    2.203894   1.100499   0.000000
     4  H    2.152927   1.115354   1.808854   0.000000
     5  H    2.170258   1.114370   1.806840   1.752114   0.000000
     6  O    1.171247   2.412654   3.300959   2.784715   2.761379
     7  O    1.356921   2.311201   2.382668   3.085954   3.087668
     8  H    1.929244   3.185054   3.351944   3.850895   3.927790
                    6          7          8
     6  O    0.000000
     7  O    2.242087   0.000000
     8  H    2.376728   0.980656   0.000000
 Stoichiometry    C2H4O2
 Framework group  C1[X(C2H4O2)]
 Deg. of freedom    18
 Full point group                 C1      NOp   1
 Largest Abelian subgroup         C1      NOp   1
 Largest concise Abelian subgroup C1      NOp   1
                         Standard orientation:                         
 ---------------------------------------------------------------------
 Center     Atomic     Atomic              Coordinates (Angstroms)
 Number     Number      Type              X           Y           Z
 ---------------------------------------------------------------------
    1          6             0        0.114635    0.152795    0.023855
    2          6             0       -1.372450   -0.114984    0.002204
    3          1             0       -1.637909   -1.182673   -0.023710
    4          1             0       -1.843879    0.363138    0.892804
    5          1             0       -1.851891    0.405261   -0.858785
    6          8             0        0.656375    1.190607   -0.011998
    7          8             0        0.741052   -1.049835   -0.026297
    8          1             0        1.701154   -0.938772    0.139703
 ---------------------------------------------------------------------
 Rotational constants (GHZ):     11.2900322      9.6373164      5.3745274
 Standard basis: 6-31G(d) (6D, 7F)
 There are    68 symmetry adapted basis functions of A   symmetry.
 Integral buffers will be    262144 words long.
 Raffenetti 2 integral format.
 Two-electron integral symmetry is turned on.
    68 basis functions,   128 primitive gaussians,    68 cartesian basis functions
    16 alpha electrons       16 beta electrons
       nuclear repulsion energy       121.5089799511 Hartrees.
 NAtoms=    8 NActive=    8 NUniq=    8 SFac= 1.00D+00 NAtFMM=   60 Big=F
 One-electron integrals computed using PRISM.
 NBasis=    68 RedAO= T  NBF=    68
 NBsUse=    68 1.00D-06 NBFU=    68
 Initial guess read from the read-write file:
 Initial guess orbital symmetries:
       Occupied  (A) (A) (A) (A) (A) (A) (A) (A) (A) (A) (A) (A)
                 (A) (A) (A) (A)
       Virtual   (A) (A) (A) (A) (A) (A) (A) (A) (A) (A) (A) (A)
                 (A) (A) (A) (A) (A) (A) (A) (A) (A) (A) (A) (A)
                 (A) (A) (A) (A) (A) (A) (A) (A) (A) (A) (A) (A)
                 (A) (A) (A) (A) (A) (A) (A) (A) (A) (A) (A) (A)
                 (A) (A) (A) (A)
 Harris functional with IExCor=  402 diagonalized for initial guess.
 ExpMin= 1.61D-01 ExpMax= 5.48D+03 ExpMxC= 8.25D+02 IAcc=1 IRadAn=         1 AccDes= 1.00D-06
 HarFok:  IExCor= 402 AccDes= 1.00D-06 IRadAn=         1 IDoV=1
 ScaDFX=  1.000000  1.000000  1.000000  1.000000
 Requested convergence on RMS density matrix=1.00D-08 within 128 cycles.
 Requested convergence on MAX density matrix=1.00D-06.
 Requested convergence on             energy=1.00D-06.
 No special actions if energy rises.
 Keep R1 integrals in memory in canonical form, NReq=     3442555.
 Integral accuracy reduced to 1.0D-05 until final iterations.
 Initial convergence to 1.0D-05 achieved.  Increase integral accuracy.
 SCF Done:  E(RB+HF-LYP) =  -229.075130289     A.U. after   12 cycles
             Convg  =    0.3606D-08             -V/T =  2.0084
             S**2   =   0.0000
 ***** Axes restored to original set *****
 -------------------------------------------------------------------
 Center     Atomic                   Forces (Hartrees/Bohr)
 Number     Number              X              Y              Z
 -------------------------------------------------------------------
    1          6           0.057586126   -0.013949441    0.043908224
    2          6          -0.019525362   -0.000635655    0.021712865
    3          1          -0.005962346    0.000796747   -0.005708109
    4          1           0.008424017   -0.005713122   -0.005741526
    5          1           0.006889376    0.007643586   -0.006597848
    6          8          -0.054186817    0.005494525   -0.039706965
    7          8           0.011608980    0.012748309   -0.011090910
    8          1          -0.004833974   -0.006384949    0.003224269
 -------------------------------------------------------------------
 Cartesian Forces:  Max     0.057586126 RMS     0.022064677

 GradGradGradGradGradGradGradGradGradGradGradGradGradGradGradGradGradGrad
 Berny optimization.
 Internal  Forces:  Max     0.066968710 RMS     0.014889150
 Search for a local minimum.
 Step number   6 out of a maximum of  35
 All quantities printed in internal units (Hartrees-Bohrs-Radians)
 Update second derivatives using D2CorX and points  5  6
 Trust test= 1.58D+00 RLast= 2.53D-01 DXMaxT set to 7.60D-01
     Eigenvalues ---    0.00236   0.00983   0.02105   0.06382   0.06683
     Eigenvalues ---    0.10001   0.15769   0.16043   0.16590   0.19581
     Eigenvalues ---    0.25113   0.28509   0.33729   0.37186   0.37326
     Eigenvalues ---    0.41164   0.54788   0.652351000.000001000.00000
     Eigenvalues --- 1000.000001000.000001000.000001000.000001000.00000
 RFO step:  Lambda=-2.53398206D-02.
 Quartic linear search produced a step of  1.63506.
 Iteration  1 RMS(Cart)=  0.13635131 RMS(Int)=  0.02820651
 Iteration  2 RMS(Cart)=  0.02882574 RMS(Int)=  0.00189292
 Iteration  3 RMS(Cart)=  0.00106447 RMS(Int)=  0.00160419
 Iteration  4 RMS(Cart)=  0.00000235 RMS(Int)=  0.00160418
 Iteration  5 RMS(Cart)=  0.00000000 RMS(Int)=  0.00160418
 Variable       Old X    -DE/DX   Delta X   Delta X   Delta X     New X
                                 (Linear)    (Quad)   (Total)
    R1        2.85567   0.00320   0.00669   0.08633   0.09302   2.94869
    R2        2.21334   0.06697   0.00873   0.26812   0.27685   2.49019
    R3        2.56421   0.00931  -0.00602   0.10988   0.10386   2.66807
    R4        2.07964  -0.00773  -0.00826  -0.10199  -0.11025   1.96939
    R5        2.10771  -0.01120  -0.00560  -0.11749  -0.12309   1.98463
    R6        2.10585  -0.01140  -0.00828  -0.11564  -0.12392   1.98194
    R7        1.85317  -0.00501  -0.00014  -0.04247  -0.04262   1.81055
    A1        2.22905  -0.00811   0.00396  -0.11259  -0.11196   2.11710
    A2        1.87204   0.01619   0.01962   0.21156   0.22787   2.09991
    A3        2.17811  -0.00764  -0.01571  -0.11816  -0.13725   2.04086
    A4        1.99285  -0.00397  -0.01096  -0.11642  -0.12931   1.86353
    A5        1.90555   0.00009   0.01454   0.02163   0.03484   1.94039
    A6        1.93021  -0.00370  -0.00591   0.01265   0.00417   1.93438
    A7        1.91000   0.00105   0.00280   0.01245   0.01469   1.92469
    A8        1.90812   0.00290   0.00058   0.00745   0.00476   1.91288
    A9        1.80797   0.00449   0.00028   0.08190   0.08019   1.88816
   A10        1.92340  -0.00853  -0.04229  -0.19455  -0.23684   1.68655
    D1        3.07241   0.00222   0.02371  -0.11377  -0.08875   2.98366
    D2       -1.06672   0.00086   0.03073  -0.16308  -0.13272  -1.19943
    D3        0.91172   0.00428   0.03602  -0.04606  -0.01042   0.90130
    D4        0.02379  -0.00271  -0.04870   0.11321   0.06545   0.08924
    D5        2.16785  -0.00408  -0.04168   0.06389   0.02148   2.18933
    D6       -2.13690  -0.00065  -0.03639   0.18092   0.14378  -1.99312
    D7       -2.97276  -0.00230  -0.24486   0.05418  -0.19053   3.11990
    D8        0.25839  -0.00696  -0.31646   0.27321  -0.04340   0.21499
         Item               Value     Threshold  Converged?
 Maximum Force            0.066969     0.000450     NO 
 RMS     Force            0.014889     0.000300     NO 
 Maximum Displacement     0.341204     0.001800     NO 
 RMS     Displacement     0.143370     0.001200     NO 
 Predicted change in Energy=-2.045495D-02
 GradGradGradGradGradGradGradGradGradGradGradGradGradGradGradGradGradGrad

                          Input orientation:                          
 ---------------------------------------------------------------------
 Center     Atomic     Atomic              Coordinates (Angstroms)
 Number     Number      Type              X           Y           Z
 ---------------------------------------------------------------------
    1          6             0        0.137316    0.243864    0.083968
    2          6             0       -0.024898   -0.013327    1.614435
    3          1             0        0.934202   -0.016817    2.022122
    4          1             0       -0.609142    0.734127    2.064916
    5          1             0       -0.485321   -0.939094    1.790329
    6          8             0       -0.883825    0.130882   -0.741242
    7          8             0        1.423233    0.310377   -0.495168
    8          1             0        1.131370    0.450704   -1.396880
 ---------------------------------------------------------------------
                    Distance matrix (angstroms):
                    1          2          3          4          5
     1  C    0.000000
     2  C    1.560381   0.000000
     3  H    2.111735   1.042158   0.000000
     4  H    2.172950   1.050220   1.716874   0.000000
     5  H    2.167657   1.048796   1.708616   1.700117   0.000000
     6  O    1.317750   2.511526   3.311075   2.883380   2.777140
     7  O    1.411879   2.579203   2.585141   3.296079   3.229126
     8  H    1.795505   3.258880   3.456448   3.885067   3.834519
                    6          7          8
     6  O    0.000000
     7  O    2.327077   0.000000
     8  H    2.143166   0.958103   0.000000
 Stoichiometry    C2H4O2
 Framework group  C1[X(C2H4O2)]
 Deg. of freedom    18
 Full point group                 C1      NOp   1
 Largest Abelian subgroup         C1      NOp   1
 Largest concise Abelian subgroup C1      NOp   1
                         Standard orientation:                         
 ---------------------------------------------------------------------
 Center     Atomic     Atomic              Coordinates (Angstroms)
 Number     Number      Type              X           Y           Z
 ---------------------------------------------------------------------
    1          6             0       -0.058380    0.061079   -0.080324
    2          6             0        1.474895   -0.214266    0.009348
    3          1             0        1.592378   -1.248659    0.057545
    4          1             0        1.979065    0.170685   -0.827663
    5          1             0        1.883376    0.226636    0.868837
    6          8             0       -0.541744    1.282649    0.022591
    7          8             0       -0.980820   -1.002629    0.024716
    8          1             0       -1.773392   -0.469703   -0.051320
 ---------------------------------------------------------------------
 Rotational constants (GHZ):     10.8979754      8.3093264      4.8552846
 Standard basis: 6-31G(d) (6D, 7F)
 There are    68 symmetry adapted basis functions of A   symmetry.
 Integral buffers will be    262144 words long.
 Raffenetti 2 integral format.
 Two-electron integral symmetry is turned on.
    68 basis functions,   128 primitive gaussians,    68 cartesian basis functions
    16 alpha electrons       16 beta electrons
       nuclear repulsion energy       116.5141582698 Hartrees.
 NAtoms=    8 NActive=    8 NUniq=    8 SFac= 1.00D+00 NAtFMM=   60 Big=F
 One-electron integrals computed using PRISM.
 NBasis=    68 RedAO= T  NBF=    68
 NBsUse=    68 1.00D-06 NBFU=    68
 Initial guess read from the read-write file:
 Initial guess orbital symmetries:
       Occupied  (A) (A) (A) (A) (A) (A) (A) (A) (A) (A) (A) (A)
                 (A) (A) (A) (A)
       Virtual   (A) (A) (A) (A) (A) (A) (A) (A) (A) (A) (A) (A)
                 (A) (A) (A) (A) (A) (A) (A) (A) (A) (A) (A) (A)
                 (A) (A) (A) (A) (A) (A) (A) (A) (A) (A) (A) (A)
                 (A) (A) (A) (A) (A) (A) (A) (A) (A) (A) (A) (A)
                 (A) (A) (A) (A)
 Harris functional with IExCor=  402 diagonalized for initial guess.
 ExpMin= 1.61D-01 ExpMax= 5.48D+03 ExpMxC= 8.25D+02 IAcc=1 IRadAn=         1 AccDes= 1.00D-06
 HarFok:  IExCor= 402 AccDes= 1.00D-06 IRadAn=         1 IDoV=1
 ScaDFX=  1.000000  1.000000  1.000000  1.000000
 Requested convergence on RMS density matrix=1.00D-08 within 128 cycles.
 Requested convergence on MAX density matrix=1.00D-06.
 Requested convergence on             energy=1.00D-06.
 No special actions if energy rises.
 Keep R1 integrals in memory in canonical form, NReq=     3442560.
 Integral accuracy reduced to 1.0D-05 until final iterations.
 Initial convergence to 1.0D-05 achieved.  Increase integral accuracy.
 SCF Done:  E(RB+HF-LYP) =  -229.050328677     A.U. after   15 cycles
             Convg  =    0.4893D-08             -V/T =  2.0100
             S**2   =   0.0000
 ***** Axes restored to original set *****
 -------------------------------------------------------------------
 Center     Atomic                   Forces (Hartrees/Bohr)
 Number     Number              X              Y              Z
 -------------------------------------------------------------------
    1          6          -0.075129989   -0.041295238   -0.072318342
    2          6           0.020664691    0.018290874   -0.056906484
    3          1           0.034141384    0.000251490    0.021060182
    4          1          -0.017678889    0.024916778    0.010052649
    5          1          -0.015209980   -0.029668379   -0.001840293
    6          8           0.092213236    0.021609252    0.075915492
    7          8          -0.042690374    0.005841819    0.047850857
    8          1           0.003689921    0.000053403   -0.023814060
 -------------------------------------------------------------------
 Cartesian Forces:  Max     0.092213236 RMS     0.040721991

 GradGradGradGradGradGradGradGradGradGradGradGradGradGradGradGradGradGrad
 Berny optimization.
 Internal  Forces:  Max     0.120849814 RMS     0.030609515
 Search for a local minimum.
 Step number   7 out of a maximum of  35
 All quantities printed in internal units (Hartrees-Bohrs-Radians)
 Update second derivatives using D2CorX and points  5  7  6
 Trust test=-1.21D+00 RLast= 6.28D-01 DXMaxT set to 3.80D-01
 Energy Rises -- skip Quadratic search.
 Quartic linear search produced a step of -0.74904.
 Iteration  1 RMS(Cart)=  0.10104721 RMS(Int)=  0.01490824
 Iteration  2 RMS(Cart)=  0.01470715 RMS(Int)=  0.00032510
 Iteration  3 RMS(Cart)=  0.00018536 RMS(Int)=  0.00027099
 Iteration  4 RMS(Cart)=  0.00000005 RMS(Int)=  0.00027099
 Variable       Old X    -DE/DX   Delta X   Delta X   Delta X     New X
                                 (Linear)    (Quad)   (Total)
    R1        2.94869  -0.03166  -0.06968   0.00000  -0.06968   2.87902
    R2        2.49019  -0.12085  -0.20737   0.00000  -0.20737   2.28281
    R3        2.66807  -0.04510  -0.07779   0.00000  -0.07779   2.59027
    R4        1.96939   0.03966   0.08258   0.00000   0.08258   2.05197
    R5        1.98463   0.03188   0.09220   0.00000   0.09220   2.07683
    R6        1.98194   0.03256   0.09282   0.00000   0.09282   2.07476
    R7        1.81055   0.02130   0.03192   0.00000   0.03192   1.84248
    A1        2.11710   0.01272   0.08386   0.00000   0.08437   2.20147
    A2        2.09991  -0.02190  -0.17069   0.00000  -0.17018   1.92973
    A3        2.04086   0.01083   0.10280   0.00000   0.10331   2.14417
    A4        1.86353   0.01152   0.09686   0.00000   0.09724   1.96078
    A5        1.94039  -0.00606  -0.02610   0.00000  -0.02587   1.91452
    A6        1.93438  -0.01106  -0.00312   0.00000  -0.00262   1.93176
    A7        1.92469  -0.00139  -0.01100   0.00000  -0.01090   1.91379
    A8        1.91288   0.00133  -0.00357   0.00000  -0.00297   1.90991
    A9        1.88816   0.00559  -0.06007   0.00000  -0.05971   1.82845
   A10        1.68655   0.01945   0.17741   0.00000   0.17741   1.86396
    D1        2.98366   0.00491   0.06648   0.00000   0.06628   3.04994
    D2       -1.19943   0.00693   0.09941   0.00000   0.09951  -1.09992
    D3        0.90130   0.00251   0.00780   0.00000   0.00788   0.90918
    D4        0.08924  -0.00449  -0.04902   0.00000  -0.04921   0.04003
    D5        2.18933  -0.00247  -0.01609   0.00000  -0.01598   2.17335
    D6       -1.99312  -0.00688  -0.10770   0.00000  -0.10760  -2.10073
    D7        3.11990   0.00167   0.14272   0.00000   0.14267  -3.02062
    D8        0.21499  -0.00784   0.03251   0.00000   0.03255   0.24754
         Item               Value     Threshold  Converged?
 Maximum Force            0.120850     0.000450     NO 
 RMS     Force            0.030610     0.000300     NO 
 Maximum Displacement     0.258443     0.001800     NO 
 RMS     Displacement     0.106035     0.001200     NO 
 Predicted change in Energy=-6.586349D-04
 GradGradGradGradGradGradGradGradGradGradGradGradGradGradGradGradGradGrad

                          Input orientation:                          
 ---------------------------------------------------------------------
 Center     Atomic     Atomic              Coordinates (Angstroms)
 Number     Number      Type              X           Y           Z
 ---------------------------------------------------------------------
    1          6             0        0.030881    0.185629    0.042264
    2          6             0        0.011257   -0.014148    1.552492
    3          1             0        1.008164   -0.006863    1.982853
    4          1             0       -0.599677    0.769613    2.021852
    5          1             0       -0.492021   -0.954578    1.812718
    6          8             0       -0.923786    0.131272   -0.695945
    7          8             0        1.319984    0.276368   -0.414719
    8          1             0        1.268133    0.513422   -1.359036
 ---------------------------------------------------------------------
                    Distance matrix (angstroms):
                    1          2          3          4          5
     1  C    0.000000
     2  C    1.523510   0.000000
     3  H    2.181289   1.085858   0.000000
     4  H    2.158103   1.099009   1.785942   0.000000
     5  H    2.169794   1.097914   1.782601   1.740161   0.000000
     6  O    1.208013   2.439450   3.305672   2.810506   2.767468
[...]
                    10                     11                     12
                     A                      A                      A
 Frequencies --  1364.0056              1434.2986              1500.8592
 Red. masses --     1.7923                 1.5467                 1.0527
 Frc consts  --     1.9647                 1.8747                 1.3971
 IR Inten    --    27.8321                54.3437                13.7623
 Atom AN      X      Y      Z        X      Y      Z        X      Y      Z
   1   6     0.20   0.13   0.00    -0.11  -0.07   0.00    -0.03  -0.01   0.00
   2   6     0.02  -0.04   0.00     0.17  -0.01   0.00    -0.01  -0.05   0.00
   3   1    -0.29   0.10   0.18    -0.53  -0.05   0.19    -0.07   0.51   0.37
   4   1    -0.29   0.10  -0.18    -0.53  -0.05  -0.19    -0.08   0.51  -0.38
   5   1    -0.39   0.19   0.00    -0.39   0.29   0.00     0.36  -0.23   0.01
   6   8    -0.01  -0.06   0.00     0.01   0.03   0.00     0.01  -0.01   0.00
   7   8    -0.08   0.01   0.00     0.04   0.01   0.00     0.01   0.00   0.00
   8   1    -0.22  -0.67   0.00     0.08   0.24   0.00     0.01   0.04   0.00
                    13                     14                     15
                     A                      A                      A
 Frequencies --  1505.0444              1858.1062              3073.2471
 Red. masses --     1.0460                 9.2065                 1.0374
 Frc consts  --     1.3960                18.7277                 5.7727
 IR Inten    --     8.6009               286.3607                 2.0300
 Atom AN      X      Y      Z        X      Y      Z        X      Y      Z
   1   6     0.00   0.00   0.02    -0.37   0.59   0.00     0.00   0.00   0.00
   2   6     0.00   0.00   0.05     0.05  -0.04   0.00    -0.04   0.03   0.00
   3   1    -0.36  -0.31  -0.05     0.11  -0.09  -0.07     0.16  -0.34   0.53
   4   1     0.36   0.32  -0.06     0.12  -0.09   0.07     0.16  -0.34  -0.53
   5   1     0.00   0.00  -0.73    -0.21   0.13   0.00     0.19   0.36   0.00
   6   8     0.00   0.00   0.00     0.20  -0.38   0.00     0.00   0.00   0.00
   7   8     0.00   0.00   0.00     0.02  -0.06   0.00     0.00   0.00   0.00
   8   1     0.00   0.00  -0.01     0.12   0.44   0.00     0.00   0.00   0.00
                    16                     17                     18
                     A                      A                      A
 Frequencies --  3134.9195              3187.4136              3687.3457
 Red. masses --     1.1005                 1.1031                 1.0640
 Frc consts  --     6.3724                 6.6033                 8.5233
 IR Inten    --     5.5472                 6.1821                40.7752
 Atom AN      X      Y      Z        X      Y      Z        X      Y      Z
   1   6     0.00   0.00   0.00     0.00   0.00   0.00     0.00   0.00   0.00
   2   6     0.00   0.00   0.09    -0.03  -0.09   0.00     0.00   0.00   0.00
   3   1    -0.19   0.38  -0.56    -0.07   0.13  -0.23     0.00   0.00   0.00
   4   1     0.19  -0.38  -0.56    -0.07   0.13   0.23     0.00   0.00   0.00
   5   1     0.00   0.00   0.02     0.44   0.81   0.00     0.00   0.00   0.00
   6   8     0.00   0.00   0.00     0.00   0.00   0.00     0.00   0.00   0.00
   7   8     0.00   0.00   0.00     0.00   0.00   0.00     0.06  -0.01   0.00
   8   1     0.00   0.00   0.00     0.00   0.00   0.00    -0.97   0.22   0.00

 -------------------
 - Thermochemistry -
 -------------------
 Temperature   298.150 Kelvin.  Pressure   1.00000 Atm.
 Atom  1 has atomic number  6 and mass  12.00000
 Atom  2 has atomic number  6 and mass  12.00000
 Atom  3 has atomic number  1 and mass   1.00783
 Atom  4 has atomic number  1 and mass   1.00783
 Atom  5 has atomic number  1 and mass   1.00783
 Atom  6 has atomic number  8 and mass  15.99491
 Atom  7 has atomic number  8 and mass  15.99491
 Atom  8 has atomic number  1 and mass   1.00783
 Molecular mass:    60.02113 amu.
 Principal axes and moments of inertia in atomic units:
                           1         2         3
     EIGENVALUES --   160.04567 191.80271 340.64749
           X            0.99776   0.06692   0.00000
           Y           -0.06692   0.99776   0.00000
           Z            0.00000   0.00000   1.00000
 This molecule is an asymmetric top.
 Rotational symmetry number  1.
 Rotational temperatures (Kelvin)      0.54118     0.45158     0.25426
 Rotational constants (GHZ):          11.27641     9.40936     5.29797
 Zero-point vibrational energy     162851.5 (Joules/Mol)
                                   38.92243 (Kcal/Mol)
 Warning -- explicit consideration of   4 degrees of freedom as
           vibrations may cause significant error
 Vibrational temperatures:     94.60   604.49   784.45   837.13   988.59
          (Kelvin)           1246.54  1452.56  1553.81  1763.09  1962.50
                             2063.63  2159.40  2165.42  2673.40  4421.71
                             4510.44  4585.97  5305.26
 
 Zero-point correction=                           0.062027 (Hartree/Particle)
 Thermal correction to Energy=                    0.066598
 Thermal correction to Enthalpy=                  0.067542
 Thermal correction to Gibbs Free Energy=         0.034757
 Sum of electronic and zero-point Energies=           -229.019760
 Sum of electronic and thermal Energies=              -229.015190
 Sum of electronic and thermal Enthalpies=            -229.014245
 Sum of electronic and thermal Free Energies=         -229.047030
 
                     E (Thermal)             CV                S
                      KCal/Mol        Cal/Mol-Kelvin    Cal/Mol-Kelvin
 Total                   41.791             14.217             69.001
 Electronic               0.000              0.000              0.000
 Translational            0.889              2.981             38.196
 Rotational               0.889              2.981             23.862
 Vibrational             40.013              8.255              6.943
 Vibration  1             0.597              1.971              4.277
 Vibration  2             0.783              1.426              0.891
 Vibration  3             0.900              1.150              0.554
 Vibration  4             0.939              1.071              0.482
                       Q            Log10(Q)             Ln(Q)
 Total Bot       0.103015D-15        -15.987101        -36.811661
 Total V=0       0.349307D+13         12.543207         28.881802
 Vib (Bot)       0.153971D-27        -27.812561        -64.040788
 Vib (Bot)  1    0.313841D+01          0.496710          1.143717
 Vib (Bot)  2    0.417879D+00         -0.378949         -0.872563
 Vib (Bot)  3    0.289150D+00         -0.538877         -1.240811
 Vib (Bot)  4    0.261418D+00         -0.582665         -1.341636
 Vib (V=0)       0.522093D+01          0.717747          1.652675
 Vib (V=0)  1    0.367799D+01          0.565611          1.302367
 Vib (V=0)  2    0.115163D+01          0.061313          0.141179
 Vib (V=0)  3    0.107759D+01          0.032453          0.074725
 Vib (V=0)  4    0.106422D+01          0.027030          0.062238
 Electronic      0.100000D+01          0.000000          0.000000
 Translational   0.182773D+08          7.261911         16.721169
 Rotational      0.366057D+05          4.563548         10.507958
 ***** Axes restored to original set *****
 -------------------------------------------------------------------
 Center     Atomic                   Forces (Hartrees/Bohr)
 Number     Number              X              Y              Z
 -------------------------------------------------------------------
    1          6          -0.000002849    0.000015750    0.000030409
    2          6          -0.000040307   -0.000006146    0.000000106
    3          1           0.000009140    0.000002060    0.000002582
    4          1           0.000011733    0.000000346    0.000003718
    5          1           0.000010597   -0.000003780   -0.000004305
    6          8           0.000003487   -0.000004783   -0.000012659
    7          8          -0.000000180   -0.000006880   -0.000013212
    8          1           0.000008378    0.000003432   -0.000006639
 -------------------------------------------------------------------
 Cartesian Forces:  Max     0.000040307 RMS     0.000012546

 GradGradGradGradGradGradGradGradGradGradGradGradGradGradGradGradGradGrad
 Berny optimization.
 Internal  Forces:  Max     0.000018557 RMS     0.000008173
 Search for a local minimum.
 Step number   1 out of a maximum of   2
 All quantities printed in internal units (Hartrees-Bohrs-Radians)
 Second derivative matrix not updated -- analytic derivatives used.
     Eigenvalues ---    0.00034   0.02259   0.04580   0.05785   0.05794
     Eigenvalues ---    0.12822   0.13236   0.14284   0.15542   0.21173
     Eigenvalues ---    0.25873   0.34068   0.34213   0.34849   0.35737
     Eigenvalues ---    0.40683   0.49600   0.896881000.000001000.00000
     Eigenvalues --- 1000.000001000.000001000.000001000.000001000.00000
 Angle between quadratic step and forces=  82.95 degrees.
 Linear search not attempted -- first point.
 Iteration  1 RMS(Cart)=  0.00065170 RMS(Int)=  0.00000021
 Iteration  2 RMS(Cart)=  0.00000023 RMS(Int)=  0.00000000
 Variable       Old X    -DE/DX   Delta X   Delta X   Delta X     New X
                                 (Linear)    (Quad)   (Total)
    R1        2.84998   0.00000   0.00000  -0.00001  -0.00001   2.84997
    R2        2.28664   0.00001   0.00000   0.00001   0.00001   2.28666
    R3        2.56782   0.00001   0.00000   0.00001   0.00001   2.56783
    R4        2.06918   0.00001   0.00000   0.00002   0.00002   2.06920
    R5        2.06918   0.00000   0.00000   0.00001   0.00001   2.06920
    R6        2.06003  -0.00001   0.00000  -0.00003  -0.00003   2.06000
    R7        1.84383   0.00001   0.00000   0.00001   0.00001   1.84384
    A1        2.20252   0.00000   0.00000   0.00000   0.00000   2.20252
    A2        1.94329   0.00002   0.00000   0.00006   0.00006   1.94335
    A3        2.13738  -0.00002   0.00000  -0.00006  -0.00006   2.13732
    A4        1.91997  -0.00001   0.00000  -0.00003  -0.00003   1.91994
    A5        1.91994   0.00001   0.00000   0.00000   0.00000   1.91995
    A6        1.91131   0.00000   0.00000   0.00002   0.00002   1.91134
    A7        1.87329  -0.00001   0.00000  -0.00012  -0.00012   1.87317
    A8        1.91954   0.00000   0.00000   0.00006   0.00006   1.91960
    A9        1.91954   0.00001   0.00000   0.00007   0.00007   1.91961
   A10        1.84776   0.00001   0.00000   0.00005   0.00005   1.84781
    D1        2.11017   0.00000   0.00000   0.00138   0.00138   2.11155
    D2       -2.11300  -0.00001   0.00000   0.00121   0.00121  -2.11179
    D3       -0.00143   0.00000   0.00000   0.00132   0.00132  -0.00011
    D4       -1.03150   0.00001   0.00000   0.00146   0.00146  -1.03004
    D5        1.02852   0.00000   0.00000   0.00130   0.00130   1.02981
    D6        3.14009   0.00001   0.00000   0.00140   0.00140   3.14149
    D7       -3.14158  -0.00001   0.00000  -0.00002  -0.00002   3.14158
    D8       -0.00006   0.00000   0.00000   0.00006   0.00006   0.00000
         Item               Value     Threshold  Converged?
 Maximum Force            0.000019     0.000450     YES
 RMS     Force            0.000008     0.000300     YES
 Maximum Displacement     0.001421     0.001800     YES
 RMS     Displacement     0.000652     0.001200     YES
 Predicted change in Energy=-8.293718D-09
 Optimization completed.
    -- Stationary point found.
                           ----------------------------
                           !   Optimized Parameters   !
                           ! (Angstroms and Degrees)  !
 --------------------------                            --------------------------
 ! Name  Definition              Value          Derivative Info.                !
 --------------------------------------------------------------------------------
 ! R1    R(1,2)                  1.5081         -DE/DX =    0.0                 !
 ! R2    R(1,6)                  1.21           -DE/DX =    0.0                 !
 ! R3    R(1,7)                  1.3588         -DE/DX =    0.0                 !
 ! R4    R(2,3)                  1.095          -DE/DX =    0.0                 !
 ! R5    R(2,4)                  1.095          -DE/DX =    0.0                 !
 ! R6    R(2,5)                  1.0901         -DE/DX =    0.0                 !
 ! R7    R(7,8)                  0.9757         -DE/DX =    0.0                 !
 ! A1    A(2,1,6)              126.1952         -DE/DX =    0.0                 !
 ! A2    A(2,1,7)              111.3421         -DE/DX =    0.0                 !
 ! A3    A(6,1,7)              122.4627         -DE/DX =    0.0                 !
 ! A4    A(1,2,3)              110.0061         -DE/DX =    0.0                 !
 ! A5    A(1,2,4)              110.0046         -DE/DX =    0.0                 !
 ! A6    A(1,2,5)              109.5102         -DE/DX =    0.0                 !
 ! A7    A(3,2,4)              107.3315         -DE/DX =    0.0                 !
 ! A8    A(3,2,5)              109.9816         -DE/DX =    0.0                 !
 ! A9    A(4,2,5)              109.9814         -DE/DX =    0.0                 !
 ! A10   A(1,7,8)              105.8689         -DE/DX =    0.0                 !
 ! D1    D(6,1,2,3)            120.9036         -DE/DX =    0.0                 !
 ! D2    D(6,1,2,4)           -121.0661         -DE/DX =    0.0                 !
 ! D3    D(6,1,2,5)             -0.0818         -DE/DX =    0.0                 !
 ! D4    D(7,1,2,3)            -59.1007         -DE/DX =    0.0                 !
 ! D5    D(7,1,2,4)             58.9296         -DE/DX =    0.0                 !
 ! D6    D(7,1,2,5)            179.9139         -DE/DX =    0.0                 !
 ! D7    D(2,1,7,8)            180.0006         -DE/DX =    0.0                 !
 ! D8    D(6,1,7,8)             -0.0036         -DE/DX =    0.0                 !
 --------------------------------------------------------------------------------
 GradGradGradGradGradGradGradGradGradGradGradGradGradGradGradGradGradGrad

 1|1|UNPC-UNK|Freq|RB3LYP|6-31G(d)|C2H4O2|PCUSER|23-Sep-2020|0||#N GEOM
 =ALLCHECK GUESS=READ SCRF=CHECK GENCHK RB3LYP/6-31G(D) FREQ||Title Car
 d Required||0,1|C,-0.08396862,-0.057458059,-0.1184213789|C,-0.17452786
 3,-0.1153297815,1.3858883228|H,0.7353315402,-0.5630278653,1.7990012094
 |H,-0.2549849176,0.8969297092,1.7955239847|H,-1.0445066285,-0.70476009
 6,1.6758406245|O,-0.8462872181,-0.5780802977,-0.9007362169|O,0.9893174
 11,0.6719094899,-0.5215391381|H,0.9708973606,0.6569517571,-1.496964642
 ||Version=x86-Win32-G03RevB.05|State=1-A|HF=-229.0817872|RMSD=6.171e-0
 09|RMSF=1.255e-005|Dipole=0.4223564,0.288118,0.3526469|DipoleDeriv=1.2
 493466,0.6675749,-0.0863065,0.6678127,0.7222414,-0.056287,0.0096641,0.
 0090914,1.3196536,0.0436785,-0.0091946,-0.0173417,-0.0091437,0.0508618
 ,-0.0122389,0.0015647,0.0003794,-0.2786618,-0.0318356,0.058691,-0.0371
 228,0.0476442,0.0724439,0.0388869,-0.0210995,0.0143808,0.0391508,0.094
 6295,-0.0025904,0.0226107,0.0084536,-0.0544099,-0.0486502,0.0056455,-0
 .0246263,0.0394669,-0.0131782,-0.0646985,0.0420775,-0.0647732,0.038452
 6,0.0283812,0.0129483,0.00869,0.0399901,-0.7333291,-0.2660164,-0.06814
 6,-0.2665204,-0.5240875,-0.0475929,-0.2858966,-0.1958082,-0.8420373,-0
 .9268115,-0.3648148,0.2158977,-0.3645925,-0.6376411,0.1466723,0.305176
 1,0.2073763,-0.4949868,0.3174998,-0.0189512,-0.0716689,-0.0188807,0.33
 21388,-0.0491715,-0.0280026,-0.0194834,0.1774245|Polar=26.0903015,5.03
 90821,22.114599,0.2632987,0.2086052,31.2266936|PG=C01 [X(C2H4O2)]|NIma
 g=0||0.62694270,0.27190597,0.41329299,0.17760924,0.12228400,0.81150626
 ,-0.08867222,0.00310596,0.01486726,0.59855129,0.00311769,-0.09103985,0
 .00982213,0.03597836,0.57001717,0.01710176,0.01138209,-0.19856646,-0.0
 0503140,-0.00354988,0.48607272,0.00226518,-0.00434440,-0.00105319,-0.2
 3547330,0.09187742,-0.08222199,0.25223890,-0.00020418,-0.00062779,-0.0
 0183943,0.09104807,-0.09041331,0.04434775,-0.10152060,0.09486003,-0.03
 438871,0.01558219,-0.01026398,-0.08298978,0.04566159,-0.08486038,0.091
 84700,-0.04568473,0.09089489,-0.00179285,0.00149027,-0.00209019,-0.047
 47321,0.01643482,0.01083346,-0.00166348,0.02625169,0.01159866,0.046674
 86,-0.00272682,0.00329475,-0.00034450,0.01727110,-0.27909472,-0.092123
 13,0.00042248,-0.01224875,-0.00489087,-0.01993834,0.30114342,0.0017923
 9,-0.03775731,-0.01013127,0.01177013,-0.09329335,-0.08420735,-0.000272
 79,0.01270145,0.00566144,-0.00851614,0.10149103,0.09020246,-0.00303582
 ,-0.00014282,-0.00200611,-0.23020118,-0.12187669,0.06080054,-0.0182652
 2,-0.01478552,0.00768053,0.00448693,0.00294359,-0.00237180,0.24427644,
 -0.00006114,-0.00288865,-0.00135765,-0.12189210,-0.13290123,0.04118615
 ,0.01198245,0.00916914,-0.00560074,-0.02388429,-0.01353693,0.00920954,
 0.13312231,0.13800264,0.03067183,0.02079795,-0.00600198,0.05442693,0.0
 3686353,-0.06848053,-0.00943956,-0.00884736,0.00346961,-0.01163117,-0.
 00543704,0.00342660,-0.06408181,-0.04340800,0.07339880,-0.34717461,-0.
 18490855,-0.26654601,0.00866766,-0.01166403,-0.01174973,0.00111649,0.0
 0029322,0.00328319,0.00023492,0.00201502,-0.00167006,0.00120245,0.0011
 6714,-0.00181988,0.39501387,-0.18488865,-0.20263278,-0.18218611,-0.011
 70674,0.01780069,-0.00813727,0.00166491,-0.00069739,-0.00310725,0.0006
 3102,0.00021722,0.00417112,0.00117172,0.00026688,-0.00122013,0.2491653
 0,0.20001822,-0.25862605,-0.17679896,-0.40971248,-0.03168202,-0.021698
 72,-0.03071314,0.00027459,-0.00124376,-0.00580315,-0.00104061,0.000700
 14,-0.00584748,-0.00051884,-0.00034518,0.00338999,0.31213638,0.2133309
 0,0.41223992,-0.19012545,-0.08509710,0.02872052,-0.00194650,-0.0085860
 3,0.00974629,-0.00037225,-0.00089524,0.00273129,-0.00044307,0.00000602
 ,0.00005250,0.00119884,-0.00003749,0.00028804,-0.05972830,-0.06113698,
 -0.01378499,0.29102058,-0.08502499,-0.12277124,0.01933175,-0.00852448,
 0.00490916,0.00654943,-0.00002151,-0.00008695,-0.00102407,-0.00086891,
 -0.00000194,0.00291563,-0.00003364,0.00123149,0.00017392,-0.06116738,-
 0.01158073,-0.00936601,0.17053574,0.15630525,0.05830982,0.03946410,-0.
 15046416,0.03522687,0.02388214,-0.02176808,0.00127944,0.00066045,0.000
 60041,0.00108748,0.00095324,0.00059457,0.00056108,0.00036075,-0.008404
 63,-0.02676480,-0.01819762,0.03491798,-0.02864143,-0.01806866,0.611836
 98,0.00159306,-0.00200934,0.05049848,-0.00345253,-0.00528154,0.0005210
 7,0.00015369,-0.00018743,0.00023781,-0.00002409,0.00000696,-0.00078422
 ,0.00033756,-0.00039688,0.00158563,0.00066753,0.00509942,-0.00675846,-
 0.03960385,-0.01489482,-0.04105844,0.04032862,-0.00211788,0.00337258,0
 .03428981,-0.00528016,0.00072210,0.00034487,-0.00006074,0.00004501,-0.
 00093611,-0.00011626,0.00022695,0.00056189,-0.00039896,0.00065665,0.00
 107713,0.00509928,-0.00339211,-0.00457841,-0.01478891,-0.02800505,-0.0
 2905439,0.01766363,0.02637386,0.00752972,0.00504595,-0.02636593,0.0034
 1202,0.00231256,0.00252323,-0.00041351,-0.00009437,0.00030116,-0.00024
 148,-0.00034886,0.00030104,-0.00006359,-0.00004487,-0.00079785,-0.0068
 6907,-0.00465364,0.00152836,0.00088777,-0.00051199,-0.46731307,-0.0042
 4186,-0.00170479,0.48982306||0.00000285,-0.00001575,-0.00003041,0.0000
 4031,0.00000615,-0.00000011,-0.00000914,-0.00000206,-0.00000258,-0.000
 01173,-0.00000035,-0.00000372,-0.00001060,0.00000378,0.00000431,-0.000
 00349,0.00000478,0.00001266,0.00000018,0.00000688,0.00001321,-0.000008
 38,-0.00000343,0.00000664|||@


 EVANS BOLDLY PUT 50 ATM. OF ETHYLENE IN A CELL WITH 25 ATM. OF OXYGEN.
 THE APPARATUS SUBSEQUENTLY BLEW UP, BUT LUCKILY NOT BEFORE HE
 OBTAINED THE SPECTRA SHOWN IN FIGURE 8.
 A.J.MERER AND R.S.MULLIKEN, CHEM.REV. 69, 645 (1969)
 Job cpu time:  0 days  0 hours  0 minutes 50.0 seconds.
 File lengths (MBytes):  RWF=     16 Int=      0 D2E=      0 Chk=      7 Scr=      1
 Normal termination of Gaussian 03 at Wed Sep 23 14:12:01 2020.
