 Entering Link 1 = C:\G03W\l1.exe PID=      5400.
  
 Copyright (c) 1988,1990,1992,1993,1995,1998,2003, Gaussian, Inc.
                  All Rights Reserved.
  
 This is the Gaussian(R) 03 program.  It is based on the
 the Gaussian(R) 98 system (copyright 1998, Gaussian, Inc.),
 the Gaussian(R) 94 system (copyright 1995, Gaussian, Inc.),
 the Gaussian 92(TM) system (copyright 1992, Gaussian, Inc.),
 the Gaussian 90(TM) system (copyright 1990, Gaussian, Inc.),
 the Gaussian 88(TM) system (copyright 1988, Gaussian, Inc.),
 the Gaussian 86(TM) system (copyright 1986, Carnegie Mellon
 University), and the Gaussian 82(TM) system (copyright 1983,
 Carnegie Mellon University). Gaussian is a federally registered
 trademark of Gaussian, Inc.
  
 This software contains proprietary and confidential information,
 including trade secrets, belonging to Gaussian, Inc.
  
 This software is provided under written license and may be
 used, copied, transmitted, or stored only in accord with that
 written license.
  
 The following legend is applicable only to US Government
 contracts under DFARS:
  
                    RESTRICTED RIGHTS LEGEND
  
 Use, duplication or disclosure by the US Government is subject
 to restrictions as set forth in subparagraph (c)(1)(ii) of the
 Rights in Technical Data and Computer Software clause at DFARS
 252.227-7013.
  
 Gaussian, Inc.
 Carnegie Office Park, Building 6, Pittsburgh, PA 15106 USA
  
 The following legend is applicable only to US Government
 contracts under FAR:
  
                    RESTRICTED RIGHTS LEGEND
  
 Use, reproduction and disclosure by the US Government is subject
 to restrictions as set forth in subparagraph (c) of the
 Commercial Computer Software - Restricted Rights clause at FAR
 52.227-19.
  
 Gaussian, Inc.
 Carnegie Office Park, Building 6, Pittsburgh, PA 15106 USA
  
  
 ---------------------------------------------------------------
 Warning -- This program may not be used in any manner that
 competes with the business of Gaussian, Inc. or will provide
 assistance to any competitor of Gaussian, Inc.  The licensee
 of this program is prohibited from giving any competitor of
 Gaussian, Inc. access to this program.  By using this program,
 the user acknowledges that Gaussian, Inc. is engaged in the
 business of creating and licensing software in the field of
 computational chemistry and represents and warrants to the
 licensee that it is not a competitor of Gaussian, Inc. and that
 it will not use this program in any manner prohibited above.
 ---------------------------------------------------------------
  

 Cite this work as:
 Gaussian 03, Revision B.05,
 M. J. Frisch, G. W. Trucks, H. B. Schlegel, G. E. Scuseria, 
 M. A. Robb, J. R. Cheeseman, J. A. Montgomery, Jr., T. Vreven, 
 K. N. Kudin, J. C. Burant, J. M. Millam, S. S. Iyengar, J. Tomasi, 
 V. Barone, B. Mennucci, M. Cossi, G. Scalmani, N. Rega, 
 G. A. Petersson, H. Nakatsuji, M. Hada, M. Ehara, K. Toyota, 
 R. Fukuda, J. Hasegawa, M. Ishida, T. Nakajima, Y. Honda, O. Kitao, 
 H. Nakai, M. Klene, X. Li, J. E. Knox, H. P. Hratchian, J. B. Cross, 
 C. Adamo, J. Jaramillo, R. Gomperts, R. E. Stratmann, O. Yazyev, 
 A. J. Austin, R. Cammi, C. Pomelli, J. W. Ochterski, P. Y. Ayala, 
 K. Morokuma, G. A. Voth, P. Salvador, J. J. Dannenberg, 
 V. G. Zakrzewski, S. Dapprich, A. D. Daniels, M. C. Strain, 
 O. Farkas, D. K. Malick, A. D. Rabuck, K. Raghavachari, 
 J. B. Foresman, J. V. Ortiz, Q. Cui, A. G. Baboul, S. Clifford, 
 J. Cioslowski, B. B. Stefanov, G. Liu, A. Liashenko, P. Piskorz, 
 I. Komaromi, R. L. Martin, D. J. Fox, T. Keith, M. A. Al-Laham, 
 C. Y. Peng, A. Nanayakkara, M. Challacombe, P. M. W. Gill, 
 B. Johnson, W. Chen, M. W. Wong, C. Gonzalez, and J. A. Pople, 
 Gaussian, Inc., Pittsburgh PA, 2003.
 
 **********************************************
 Gaussian 03:  x86-Win32-G03RevB.05  8-Nov-2003
                  23-Sep-2020 
 **********************************************
 %chk=Cu.chk
 %mem=6MW
 %nproc=1
 Will use up to    1 processors via shared memory.
 --------------------------------------------
 # td b3lyp/6-311++g(2d,2p) geom=connectivity
 --------------------------------------------
 1/38=1,57=2/1;
 2/17=6,18=5,40=1/2;
 3/5=4,6=6,7=1212,11=2,16=1,25=1,30=1,74=-5/1,2,8,3;
 4//1;
 5/5=2,38=5/2;
 8/6=1,10=2/1;
 9/42=1/14;
 6/7=2,8=2,9=2,10=2/1;
 99/5=1,9=1/99;
 -------------------
 Title Card Required
 -------------------
 Symbolic Z-matrix:
 Charge =  0 Multiplicity = 2
 Cu
 
                          Input orientation:                          
 ---------------------------------------------------------------------
 Center     Atomic     Atomic              Coordinates (Angstroms)
 Number     Number      Type              X           Y           Z
 ---------------------------------------------------------------------
    1         29             0        0.000000    0.000000    0.000000
 ---------------------------------------------------------------------
 Stoichiometry    Cu(2)
 Framework group  OH[O(Cu)]
 Deg. of freedom     0
 Full point group                 OH      NOp  48
 Largest Abelian subgroup         D2H     NOp   8
 Largest concise Abelian subgroup C1      NOp   1
                         Standard orientation:                         
 ---------------------------------------------------------------------
 Center     Atomic     Atomic              Coordinates (Angstroms)
 Number     Number      Type              X           Y           Z
 ---------------------------------------------------------------------
    1         29             0        0.000000    0.000000    0.000000
 ---------------------------------------------------------------------
 Standard basis: 6-311++G(2d,2p) (5D, 7F)
 There are    18 symmetry adapted basis functions of AG  symmetry.
 There are     4 symmetry adapted basis functions of B1G symmetry.
 There are     4 symmetry adapted basis functions of B2G symmetry.
 There are     4 symmetry adapted basis functions of B3G symmetry.
 There are     2 symmetry adapted basis functions of AU  symmetry.
 There are    11 symmetry adapted basis functions of B1U symmetry.
 There are    11 symmetry adapted basis functions of B2U symmetry.
 There are    11 symmetry adapted basis functions of B3U symmetry.
 Integral buffers will be    262144 words long.
 Raffenetti 2 integral format.
 Two-electron integral symmetry is turned on.
    65 basis functions,   104 primitive gaussians,    75 cartesian basis functions
    15 alpha electrons       14 beta electrons
       nuclear repulsion energy         0.0000000000 Hartrees.
 NAtoms=    1 NActive=    1 NUniq=    1 SFac= 1.00D+00 NAtFMM=   60 Big=F
 One-electron integrals computed using PRISM.
 NBasis=    65 RedAO= T  NBF=    18     4     4     4     2    11    11    11
 NBsUse=    65 1.00D-06 NBFU=    18     4     4     4     2    11    11    11
 Harris functional with IExCor=  402 diagonalized for initial guess.
 ExpMin= 1.22D-02 ExpMax= 3.37D+05 ExpMxC= 1.14D+04 IAcc=3 IRadAn=         5 AccDes= 0.00D+00
 HarFok:  IExCor= 402 AccDes= 0.00D+00 IRadAn=         5 IDoV=1
 ScaDFX=  1.000000  1.000000  1.000000  1.000000
 Initial guess orbital symmetries:
 Alpha Orbitals:
       Occupied  (A1G) (A1G) (T1U) (T1U) (T1U) (A1G) (T1U) (T1U)
                 (T1U) (T2G) (T2G) (T2G) (EG) (EG) (A1G)
       Virtual   (T1U) (T1U) (T1U) (A1G) (A1G) (T1U) (T1U) (T1U)
                 (T2G) (T2G) (T2G) (EG) (EG) (T2G) (T2G) (T2G)
                 (EG) (EG) (T1U) (T1U) (T1U) (T2U) (T2U) (T2U)
                 (A2U) (T1U) (T1U) (T1U) (A1G) (T2G) (T2G) (T2G)
                 (EG) (EG) (T2U) (T2U) (T2U) (A2U) (T1U) (T1U)
                 (T1U) (T1U) (T1U) (T1U) (A1G) (T1U) (T1U) (T1U)
                 (A1G) (A1G)
 Beta  Orbitals:
       Occupied  (A1G) (A1G) (T1U) (T1U) (T1U) (A1G) (T1U) (T1U)
                 (T1U) (T2G) (T2G) (T2G) (EG) (EG)
       Virtual   (A1G) (T1U) (T1U) (T1U) (A1G) (A1G) (T1U) (T1U)
                 (T1U) (T2G) (T2G) (T2G) (EG) (EG) (T2G) (T2G)
                 (T2G) (EG) (EG) (T1U) (T1U) (T1U) (T2U) (T2U)
                 (T2U) (A2U) (T1U) (T1U) (T1U) (A1G) (T2G) (T2G)
                 (T2G) (EG) (EG) (T2U) (T2U) (T2U) (A2U) (T1U)
                 (T1U) (T1U) (T1U) (T1U) (T1U) (A1G) (T1U) (T1U)
                 (T1U) (A1G) (A1G)
 The electronic state of the initial guess is 2-A1G.
 <S**2> of initial guess= 0.7500
 Requested convergence on RMS density matrix=1.00D-08 within 128 cycles.
 Requested convergence on MAX density matrix=1.00D-06.
 Requested convergence on             energy=1.00D-06.
 No special actions if energy rises.
 SCF Done:  E(UB+HF-LYP) =  -1640.47225716     A.U. after   10 cycles
             Convg  =    0.2686D-09             -V/T =  2.0008
             S**2   =   0.7509
 Annihilation of the first spin contaminant:
 S**2 before annihilation     0.7509,   after     0.7500
 ExpMin= 1.22D-02 ExpMax= 3.37D+05 ExpMxC= 1.14D+04 IAcc=3 IRadAn=         5 AccDes= 0.00D+00
 HarFok:  IExCor= 205 AccDes= 0.00D+00 IRadAn=         5 IDoV=1
 ScaDFX=  1.000000  1.000000  1.000000  1.000000
 Range of M.O.s used for correlation:    10    65
 NBasis=    65 NAE=    15 NBE=    14 NFC=     9 NFV=     0
 NROrb=     56 NOA=     6 NOB=     5 NVA=    50 NVB=    51
 Would need an additional     7036569 words for in-memory AO integral storage.
 Orbital symmetries:
 Alpha Orbitals:
       Occupied  (A1G) (A1G) (T1U) (T1U) (T1U) (A1G) (T1U) (T1U)
                 (T1U) (EG) (EG) (T2G) (T2G) (T2G) (A1G)
       Virtual   (T1U) (T1U) (T1U) (A1G) (A1G) (T1U) (T1U) (T1U)
                 (EG) (T2G) (EG) (T2G) (T2G) (EG) (EG) (T2G) (T2G)
                 (T2G) (T1U) (T1U) (T1U) (?A) (?A) (?A) (A2U) (?A)
                 (?A) (?A) (A1G) (EG) (EG) (T2G) (T2G) (T2G) (?A)
                 (?A) (?A) (?A) (?A) (A2U) (?A) (T1U) (T1U) (T1U)
                 (A1G) (T1U) (T1U) (T1U) (A1G) (A1G)
 Beta  Orbitals:
       Occupied  (A1G) (A1G) (T1U) (T1U) (T1U) (A1G) (T1U) (T1U)
                 (T1U) (EG) (EG) (T2G) (T2G) (T2G)
       Virtual   (A1G) (T1U) (T1U) (T1U) (A1G) (A1G) (T1U) (T1U)
                 (T1U) (EG) (EG) (T2G) (T2G) (T2G) (EG) (EG) (T2G)
                 (T2G) (T2G) (T1U) (T1U) (T1U) (?A) (?A) (?A) (A2U)
                 (?A) (?A) (?A) (A1G) (T2G) (T2G) (T2G) (EG) (EG)
                 (A2U) (?A) (?A) (?A) (?A) (?A) (?A) (T1U) (T1U)
                 (T1U) (A1G) (T1U) (T1U) (T1U) (A1G) (A1G)
    24 initial guesses have been made.
 Convergence on wavefunction:    0.001000000000000
 Iteration     1 Dimension    24 NMult    24
 CISAX will form  24 AO SS matrices at one time.
 New state      2 was old state      3
 New state      3 was old state      2
 Iteration     2 Dimension    30 NMult    30
 New state      1 was old state      3
 Iteration     3 Dimension    36 NMult    36
 Iteration     4 Dimension    40 NMult    40
 ***********************************************************************
 Excited states from <AA,BB:AA,BB> singles matrix:
 ***********************************************************************
 
 Ground to excited state Transition electric dipole moments (Au):
       state          X           Y           Z          Osc.
         1         0.0000      0.0000      0.0000      0.0000
         2         0.0000      0.0000      0.0000      0.0000
         3         0.0000      0.0000      0.0000      0.0000
 Ground to excited state transition velocity dipole Moments (Au):
       state          X           Y           Z          Osc.
         1         0.0000      0.0000      0.0000      0.0000
         2         0.0000      0.0000      0.0000      0.0000
         3         0.0000      0.0000      0.0000      0.0000
 Ground to excited state transition magnetic dipole Moments (Au):
       state          X           Y           Z
         1         0.0000      0.0000      0.0000
         2         0.0000      0.0000      0.0000
         3         0.0000      0.0000      0.0000
 <0|del|b> * <b|rxdel|0>  (Au), Rotatory Strengths (R) in
 cgs (10**-40 erg-esu-cm/Gauss)
       state          X           Y           Z     R(velocity)
         1         0.0000      0.0000      0.0000      0.0000
         2         0.0000      0.0000      0.0000      0.0000
         3         0.0000      0.0000      0.0000      0.0000
 <0|r|b> * <b|rxdel|0>  (Au), Rotatory Strengths (R) in
 cgs (10**-40 erg-esu-cm/Gauss)
       state          X           Y           Z     R(length)
         1         0.0000      0.0000      0.0000      0.0000
         2         0.0000      0.0000      0.0000      0.0000
         3         0.0000      0.0000      0.0000      0.0000
  <0|del|b> * <b|r|0>  (Au)
       state          X           Y           Z       Osc.(frdel)
         1         0.0000      0.0000      0.0000      0.0000
         2         0.0000      0.0000      0.0000      0.0000
         3         0.0000      0.0000      0.0000      0.0000
 Ground to excited state transition densities written to RWF  633

 Excitation energies and oscillator strengths:
 
 Excited State   1:   ?Spin  -T2G    1.5572 eV  796.18 nm  f=0.0000
     12B -> 15B        0.22922
     13B -> 15B       -0.68344
     14B -> 15B        0.69680
 This state for optimization and/or second-order correction.
 Copying the excited state density for this state as the 1-particle RhoCI density.
 
 Excited State   2:   ?Spin  -T2G    1.5572 eV  796.18 nm  f=0.0000
     12B -> 15B        0.65214
     13B -> 15B        0.63962
     14B -> 15B        0.41298
 
 Excited State   3:   ?Spin  -T2G    1.5572 eV  796.18 nm  f=0.0000
     12B -> 15B        0.72607
     13B -> 15B       -0.35850
     14B -> 15B       -0.59040

 **********************************************************************

            Population analysis using the SCF density.

 **********************************************************************

 Orbital symmetries:
 Alpha Orbitals:
       Occupied  (A1G) (A1G) (T1U) (T1U) (T1U) (A1G) (T1U) (T1U)
                 (T1U) (EG) (EG) (T2G) (T2G) (T2G) (A1G)
       Virtual   (T1U) (T1U) (T1U) (A1G) (A1G) (T1U) (T1U) (T1U)
                 (EG) (T2G) (EG) (T2G) (T2G) (EG) (EG) (T2G) (T2G)
                 (T2G) (T1U) (T1U) (T1U) (?A) (?A) (?A) (A2U) (?A)
                 (?A) (?A) (A1G) (EG) (EG) (T2G) (T2G) (T2G) (?A)
                 (?A) (?A) (?A) (?A) (A2U) (?A) (T1U) (T1U) (T1U)
                 (A1G) (T1U) (T1U) (T1U) (A1G) (A1G)
 Beta  Orbitals:
       Occupied  (A1G) (A1G) (T1U) (T1U) (T1U) (A1G) (T1U) (T1U)
                 (T1U) (EG) (EG) (T2G) (T2G) (T2G)
       Virtual   (A1G) (T1U) (T1U) (T1U) (A1G) (A1G) (T1U) (T1U)
                 (T1U) (EG) (EG) (T2G) (T2G) (T2G) (EG) (EG) (T2G)
                 (T2G) (T2G) (T1U) (T1U) (T1U) (?A) (?A) (?A) (A2U)
                 (?A) (?A) (?A) (A1G) (T2G) (T2G) (T2G) (EG) (EG)
                 (A2U) (?A) (?A) (?A) (?A) (?A) (?A) (T1U) (T1U)
                 (T1U) (A1G) (T1U) (T1U) (T1U) (A1G) (A1G)
 The electronic state is 2-A1G.
 Alpha  occ. eigenvalues -- -322.95510 -38.74351 -33.96570 -33.96570 -33.96570
 Alpha  occ. eigenvalues --   -4.26331  -2.75879  -2.75879  -2.75879  -0.25749
 Alpha  occ. eigenvalues --   -0.25749  -0.25749  -0.25749  -0.25749  -0.19535
 Alpha virt. eigenvalues --   -0.01359  -0.01359  -0.01359   0.00797   0.15636
 Alpha virt. eigenvalues --    0.22044   0.22044   0.22044   0.33112   0.33112
 Alpha virt. eigenvalues --    0.33112   0.33112   0.33112   1.76036   1.76036
 Alpha virt. eigenvalues --    1.76036   1.76036   1.76036   1.89206   1.89206
 Alpha virt. eigenvalues --    1.89206   2.18312   2.18312   2.18312   2.18312
 Alpha virt. eigenvalues --    2.18312   2.18312   2.18312   3.23246   7.39822
 Alpha virt. eigenvalues --    7.39822   7.39822   7.39822   7.39822   8.08288
 Alpha virt. eigenvalues --    8.08288   8.08288   8.08288   8.08288   8.08288
 Alpha virt. eigenvalues --    8.08288   9.74900   9.74900   9.74900  32.00409
 Alpha virt. eigenvalues --   43.10394  43.10394  43.10394 184.06138 979.31467
  Beta  occ. eigenvalues -- -322.95374 -38.74365 -33.96604 -33.96604 -33.96604
  Beta  occ. eigenvalues --   -4.26263  -2.75923  -2.75923  -2.75923  -0.25436
  Beta  occ. eigenvalues --   -0.25436  -0.25436  -0.25436  -0.25436
  Beta virt. eigenvalues --   -0.12103   0.00413   0.00413   0.00413   0.01514
  Beta virt. eigenvalues --    0.16821   0.23921   0.23921   0.23921   0.34804
  Beta virt. eigenvalues --    0.34804   0.34804   0.34804   0.34804   1.77452
  Beta virt. eigenvalues --    1.77452   1.77452   1.77452   1.77452   1.90352
  Beta virt. eigenvalues --    1.90352   1.90352   2.19983   2.19983   2.19983
  Beta virt. eigenvalues --    2.19983   2.19983   2.19983   2.19983   3.24099
  Beta virt. eigenvalues --    7.40008   7.40008   7.40008   7.40008   7.40008
  Beta virt. eigenvalues --    8.08337   8.08337   8.08337   8.08337   8.08337
  Beta virt. eigenvalues --    8.08337   8.08337   9.75118   9.75118   9.75118
  Beta virt. eigenvalues --   32.00453  43.10346  43.10346  43.10346 184.06203
  Beta virt. eigenvalues --  979.31608
          Condensed to atoms (all electrons):
              1
     1  Cu  29.000000
 Mulliken atomic charges:
              1
     1  Cu   0.000000
 Sum of Mulliken charges=   0.00000
 Atomic charges with hydrogens summed into heavy atoms:
              1
     1  Cu   0.000000
 Sum of Mulliken charges=   0.00000
          Atomic-Atomic Spin Densities.
              1
     1  Cu   1.000000
 Mulliken atomic spin densities:
              1
     1  Cu   1.000000
 Sum of Mulliken spin densities=   1.00000
 Electronic spatial extent (au):  <R**2>=    31.1302
 Charge=     0.0000 electrons
 Dipole moment (field-independent basis, Debye):
    X=     0.0000    Y=     0.0000    Z=     0.0000  Tot=     0.0000
 Quadrupole moment (field-independent basis, Debye-Ang):
   XX=   -13.9571   YY=   -13.9571   ZZ=   -13.9571
   XY=     0.0000   XZ=     0.0000   YZ=     0.0000
 Traceless Quadrupole moment (field-independent basis, Debye-Ang):
   XX=     0.0000   YY=     0.0000   ZZ=     0.0000
   XY=     0.0000   XZ=     0.0000   YZ=     0.0000
 Octapole moment (field-independent basis, Debye-Ang**2):
  XXX=     0.0000  YYY=     0.0000  ZZZ=     0.0000  XYY=     0.0000
  XXY=     0.0000  XXZ=     0.0000  XZZ=     0.0000  YZZ=     0.0000
  YYZ=     0.0000  XYZ=     0.0000
 Hexadecapole moment (field-independent basis, Debye-Ang**3):
 XXXX=   -21.4160 YYYY=   -21.4160 ZZZZ=   -21.4160 XXXY=     0.0000
 XXXZ=     0.0000 YYYX=     0.0000 YYYZ=     0.0000 ZZZX=     0.0000
 ZZZY=     0.0000 XXYY=    -7.1387 XXZZ=    -7.1387 YYZZ=    -7.1387
 XXYZ=     0.0000 YYXZ=     0.0000 ZZXY=     0.0000
 N-N= 0.000000000000D+00 E-N=-3.926956386349D+03  KE= 1.639138235416D+03
 Symmetry AG   KE= 1.037729175780D+03
 Symmetry B1G  KE= 1.864147373900D+01
 Symmetry B2G  KE= 1.864147373900D+01
 Symmetry B3G  KE= 1.864147373900D+01
 Symmetry AU   KE= 5.773138250506D-60
 Symmetry B1U  KE= 1.818282128064D+02
 Symmetry B2U  KE= 1.818282128064D+02
 Symmetry B3U  KE= 1.818282128064D+02
 1|1|UNPC-UNK|SP|UTD-B3LYP-FC|6-311++G(2d,2p)|Cu1(2)|PCUSER|23-Sep-2020
 |0||# TD B3LYP/6-311++G(2D,2P) GEOM=CONNECTIVITY||Title Card Required|
 |0,2|Cu||Version=x86-Win32-G03RevB.05|State=2-A1G|HF=-1640.4722572|S2=
 0.750942|S2-1=0.|S2A=0.750001|RMSD=2.686e-010|PG=OH [O(Cu1)]||@


 Mondays are the potholes in the road of life.
                                -- Tom Wilson
 Job cpu time:  0 days  0 hours  0 minutes 16.0 seconds.
 File lengths (MBytes):  RWF=     15 Int=      0 D2E=      0 Chk=      9 Scr=      1
 Normal termination of Gaussian 03 at Wed Sep 23 15:13:15 2020.
