 Entering Link 1 = d:\gaussian 09w\l1.exe PID=     16060.
  
 Copyright (c) 1988,1990,1992,1993,1995,1998,2003,2009, Gaussian, Inc.
                  All Rights Reserved.
  
 This is part of the Gaussian(R) 09 program.  It is based on
 the Gaussian(R) 03 system (copyright 2003, Gaussian, Inc.),
 the Gaussian(R) 98 system (copyright 1998, Gaussian, Inc.),
 the Gaussian(R) 94 system (copyright 1995, Gaussian, Inc.),
 the Gaussian 92(TM) system (copyright 1992, Gaussian, Inc.),
 the Gaussian 90(TM) system (copyright 1990, Gaussian, Inc.),
 the Gaussian 88(TM) system (copyright 1988, Gaussian, Inc.),
 the Gaussian 86(TM) system (copyright 1986, Carnegie Mellon
 University), and the Gaussian 82(TM) system (copyright 1983,
 Carnegie Mellon University). Gaussian is a federally registered
 trademark of Gaussian, Inc.
  
 This software contains proprietary and confidential information,
 including trade secrets, belonging to Gaussian, Inc.
  
 This software is provided under written license and may be
 used, copied, transmitted, or stored only in accord with that
 written license.
  
 The following legend is applicable only to US Government
 contracts under FAR:
  
                    RESTRICTED RIGHTS LEGEND
  
 Use, reproduction and disclosure by the US Government is
 subject to restrictions as set forth in subparagraphs (a)
 and (c) of the Commercial Computer Software - Restricted
 Rights clause in FAR 52.227-19.
  
 Gaussian, Inc.
 340 Quinnipiac St., Bldg. 40, Wallingford CT 06492
  
  
 ---------------------------------------------------------------
 Warning -- This program may not be used in any manner that
 competes with the business of Gaussian, Inc. or will provide
 assistance to any competitor of Gaussian, Inc.  The licensee
 of this program is prohibited from giving any competitor of
 Gaussian, Inc. access to this program.  By using this program,
 the user acknowledges that Gaussian, Inc. is engaged in the
 business of creating and licensing software in the field of
 computational chemistry and represents and warrants to the
 licensee that it is not a competitor of Gaussian, Inc. and that
 it will not use this program in any manner prohibited above.
 ---------------------------------------------------------------
  

 Cite this work as:
 Gaussian 09, Revision A.02,
 M. J. Frisch, G. W. Trucks, H. B. Schlegel, G. E. Scuseria, 
 M. A. Robb, J. R. Cheeseman, G. Scalmani, V. Barone, B. Mennucci, 
 G. A. Petersson, H. Nakatsuji, M. Caricato, X. Li, H. P. Hratchian, 
 A. F. Izmaylov, J. Bloino, G. Zheng, J. L. Sonnenberg, M. Hada, 
 M. Ehara, K. Toyota, R. Fukuda, J. Hasegawa, M. Ishida, T. Nakajima, 
 Y. Honda, O. Kitao, H. Nakai, T. Vreven, J. A. Montgomery, Jr., 
 J. E. Peralta, F. Ogliaro, M. Bearpark, J. J. Heyd, E. Brothers, 
 K. N. Kudin, V. N. Staroverov, R. Kobayashi, J. Normand, 
 K. Raghavachari, A. Rendell, J. C. Burant, S. S. Iyengar, J. Tomasi, 
 M. Cossi, N. Rega, J. M. Millam, M. Klene, J. E. Knox, J. B. Cross, 
 V. Bakken, C. Adamo, J. Jaramillo, R. Gomperts, R. E. Stratmann, 
 O. Yazyev, A. J. Austin, R. Cammi, C. Pomelli, J. W. Ochterski, 
 R. L. Martin, K. Morokuma, V. G. Zakrzewski, G. A. Voth, 
 P. Salvador, J. J. Dannenberg, S. Dapprich, A. D. Daniels, 
 O. Farkas, J. B. Foresman, J. V. Ortiz, J. Cioslowski, 
 and D. J. Fox, Gaussian, Inc., Wallingford CT, 2009.
 
 ******************************************
 Gaussian 09:  IA32W-G09RevA.02 11-Jun-2009
                25-Sep-2020 
 ******************************************
 %chk=Cu.chk
 %mem=6MW
 %nproc=1
 Will use up to    1 processors via shared memory.
 ------------------------------------
 # td b3lyp/cc-pvtz geom=connectivity
 ------------------------------------
 1/38=1,57=2/1;
 2/12=2,17=6,18=5,40=1/2;
 3/5=16,6=1,11=2,16=1,25=1,30=1,74=-5/1,2,8,3;
 4//1;
 5/5=2,38=5/2;
 8/6=1,10=1/1;
 9/42=1/14;
 6/7=2,8=2,9=2,10=2/1;
 99/5=1,9=1/99;
 -------------------
 Title Card Required
 -------------------
 Symbolic Z-matrix:
 Charge =  0 Multiplicity = 2
 Cu
 
                          Input orientation:                          
 ---------------------------------------------------------------------
 Center     Atomic      Atomic             Coordinates (Angstroms)
 Number     Number       Type             X           Y           Z
 ---------------------------------------------------------------------
      1         29           0        0.000000    0.000000    0.000000
 ---------------------------------------------------------------------
 Stoichiometry    Cu(2)
 Framework group  OH[O(Cu)]
 Deg. of freedom     0
 Full point group                 OH      NOp  48
 Largest Abelian subgroup         D2H     NOp   8
 Largest concise Abelian subgroup C1      NOp   1
                         Standard orientation:                         
 ---------------------------------------------------------------------
 Center     Atomic      Atomic             Coordinates (Angstroms)
 Number     Number       Type             X           Y           Z
 ---------------------------------------------------------------------
      1         29           0        0.000000    0.000000    0.000000
 ---------------------------------------------------------------------
 Standard basis: CC-pVTZ (5D, 7F)
 There are    18 symmetry adapted basis functions of AG  symmetry.
 There are     6 symmetry adapted basis functions of B1G symmetry.
 There are     6 symmetry adapted basis functions of B2G symmetry.
 There are     6 symmetry adapted basis functions of B3G symmetry.
 There are     2 symmetry adapted basis functions of AU  symmetry.
 There are    10 symmetry adapted basis functions of B1U symmetry.
 There are    10 symmetry adapted basis functions of B2U symmetry.
 There are    10 symmetry adapted basis functions of B3U symmetry.
 Integral buffers will be    262144 words long.
 Raffenetti 2 integral format.
 Two-electron integral symmetry is turned on.
    68 basis functions,   352 primitive gaussians,    84 cartesian basis functions
    15 alpha electrons       14 beta electrons
       nuclear repulsion energy         0.0000000000 Hartrees.
 NAtoms=    1 NActive=    1 NUniq=    1 SFac= 7.50D-01 NAtFMM=   80 NAOKFM=F Big=F
 One-electron integrals computed using PRISM.
 NBasis=    68 RedAO= T  NBF=    18     6     6     6     2    10    10    10
 NBsUse=    68 1.00D-06 NBFU=    18     6     6     6     2    10    10    10
 Harris functional with IExCor=  402 diagonalized for initial guess.
 ExpMin= 3.63D-02 ExpMax= 5.43D+06 ExpMxC= 6.17D+03 IAcc=3 IRadAn=         0 AccDes= 0.00D+00
 HarFok:  IExCor=  402 AccDes= 0.00D+00 IRadAn=         0 IDoV= 1
 ScaDFX=  1.000000  1.000000  1.000000  1.000000
 FoFCou: FMM=F IPFlag=           0 FMFlag=      100000 FMFlg1=           0
         NFxFlg=           0 DoJE=T BraDBF=F KetDBF=T FulRan=T
         Omega=  0.000000  0.000000  1.000000  0.000000  0.000000 ICntrl=     500 IOpCl=  0
         NMat0=    1 NMatS0=    1 NMatT0=    0 NMatD0=    1 NMtDS0=    0 NMtDT0=    0
         I1Cent=           4 NGrid=           0.
 Petite list used in FoFCou.
 Initial guess orbital symmetries:
 Alpha Orbitals:
       Occupied  (A1G) (A1G) (T1U) (T1U) (T1U) (A1G) (T1U) (T1U)
                 (T1U) (A1G) (EG) (T2G) (T2G) (T2G) (EG)
       Virtual   (T1U) (T1U) (T1U) (A1G) (T1U) (T1U) (T1U) (EG)
                 (T2G) (T2G) (T2G) (EG) (A1G) (T1U) (T1U) (T1U)
                 (EG) (T2G) (T2G) (T2G) (EG) (A2U) (?A) (?A) (?A)
                 (?A) (?A) (?A) (A1G) (T1U) (T1U) (T1U) (EG) (EG)
                 (T2G) (T2G) (T2G) (?A) (?A) (?A) (A2U) (?A) (?A)
                 (?A) (A1G) (EG) (EG) (T2G) (T2G) (T2G) (T1G) (T1G)
                 (T1G)
 Beta  Orbitals:
       Occupied  (A1G) (A1G) (T1U) (T1U) (T1U) (A1G) (T1U) (T1U)
                 (T1U) (A1G) (EG) (T2G) (T2G) (T2G)
       Virtual   (EG) (T1U) (T1U) (T1U) (A1G) (T1U) (T1U) (T1U)
                 (EG) (T2G) (T2G) (T2G) (EG) (A1G) (T1U) (T1U)
                 (T1U) (EG) (T2G) (T2G) (T2G) (EG) (A2U) (?A) (?A)
                 (?A) (?A) (?A) (?A) (A1G) (T1U) (T1U) (T1U) (EG)
                 (EG) (T2G) (T2G) (T2G) (?A) (?A) (?A) (A2U) (?A)
                 (?A) (?A) (A1G) (EG) (EG) (T2G) (T2G) (T2G) (T1G)
                 (T1G) (T1G)
 Initial guess <Sx>= 0.0000 <Sy>= 0.0000 <Sz>= 0.5000 <S**2>= 0.7500 S= 0.5000
 Requested convergence on RMS density matrix=1.00D-08 within 128 cycles.
 Requested convergence on MAX density matrix=1.00D-06.
 Requested convergence on             energy=1.00D-06.
 No special actions if energy rises.
 Density matrix breaks symmetry, PCut= 1.00D-04
 Density has only Abelian symmetry.
 Density matrix breaks symmetry, PCut= 1.00D-04
 Density has only Abelian symmetry.
 Density matrix breaks symmetry, PCut= 1.00D-04
 Density has only Abelian symmetry.
 EnCoef did   100 forward-backward iterations
 Density matrix breaks symmetry, PCut= 1.00D-04
 Density has only Abelian symmetry.
 EnCoef did   100 forward-backward iterations
 Density matrix breaks symmetry, PCut= 1.00D-04
 Density has only Abelian symmetry.
 Density matrix breaks symmetry, PCut= 1.00D-04
 Density has only Abelian symmetry.
 Density matrix breaks symmetry, PCut= 1.00D-04
 Density has only Abelian symmetry.
 Density matrix breaks symmetry, PCut= 1.00D-04
 Density has only Abelian symmetry.
 Density matrix breaks symmetry, PCut= 1.00D-04
 Density has only Abelian symmetry.
 Density matrix breaks symmetry, PCut= 1.00D-04
 Density has only Abelian symmetry.
 Density matrix breaks symmetry, PCut= 1.00D-04
 Density has only Abelian symmetry.
 Restarting incremental Fock formation.
 SCF Done:  E(UB3LYP) =  -1640.58457810     A.U. after   14 cycles
             Convg  =    0.7120D-09             -V/T =  2.0012
 <Sx>= 0.0000 <Sy>= 0.0000 <Sz>= 0.5000 <S**2>= 0.7509 S= 0.5004
 <L.S>= 0.000000000000E+00
 Annihilation of the first spin contaminant:
 S**2 before annihilation     0.7509,   after     0.7500
 ExpMin= 3.63D-02 ExpMax= 5.43D+06 ExpMxC= 6.17D+03 IAcc=3 IRadAn=         5 AccDes= 0.00D+00
 HarFok:  IExCor=  205 AccDes= 0.00D+00 IRadAn=         5 IDoV=-2
 ScaDFX=  1.000000  1.000000  1.000000  1.000000
 Range of M.O.s used for correlation:    10    68
 NBasis=    68 NAE=    15 NBE=    14 NFC=     9 NFV=     0
 NROrb=     59 NOA=     6 NOB=     5 NVA=    53 NVB=    54
 Would need an additional    18800000 words for in-memory AO integral storage.
 Orbital symmetries:
 Alpha Orbitals:
       Occupied  (A1G) (A1G) (T1U) (T1U) (T1U) (A1G) (T1U) (T1U)
                 (T1U) (EG) (T2G) (T2G) (T2G) (EG) (A1G)
       Virtual   (T1U) (T1U) (T1U) (A1G) (T1U) (T1U) (T1U) (EG)
                 (T2G) (T2G) (T2G) (EG) (A1G) (T1U) (T1U) (T1U)
                 (EG) (T2G) (T2G) (T2G) (EG) (?A) (?A) (?A) (A2U)
                 (?A) (?A) (?A) (A1G) (T1U) (T1U) (T1U) (EG) (T2G)
                 (T2G) (T2G) (EG) (?A) (?A) (?A) (A2U) (?A) (?A)
                 (?A) (?B) (?B) (T2G) (?B) (T2G) (?B) (?B) (?B)
                 (T2G)
 Beta  Orbitals:
       Occupied  (A1G) (A1G) (T1U) (T1U) (T1U) (A1G) (T1U) (T1U)
                 (T1U) (EG) (EG) (T2G) (T2G) (T2G)
       Virtual   (A1G) (T1U) (T1U) (T1U) (A1G) (T1U) (T1U) (T1U)
                 (EG) (T2G) (T2G) (T2G) (EG) (A1G) (T1U) (T1U)
                 (T1U) (EG) (T2G) (EG) (T2G) (T2G) (?A) (?A) (?A)
                 (?A) (?A) (A2U) (?A) (A1G) (T1U) (T1U) (T1U) (EG)
                 (EG) (T2G) (T2G) (T2G) (?A) (?A) (?A) (?A) (?A)
                 (?A) (A2U) (T2G) (?B) (T2G) (?B) (?B) (?B) (?B)
                 (T2G) (?B)
    24 initial guesses have been made.
 Convergence on wavefunction:    0.001000000000000
 Iteration     1 Dimension    24 NMult    24
 CISAX will form    24 AO SS matrices at one time.
 Iteration     2 Dimension    30 NMult    30
 Iteration     3 Dimension    36 NMult    36
 Iteration     4 Dimension    42 NMult    42
 ***********************************************************************
 Excited states from <AA,BB:AA,BB> singles matrix:
 ***********************************************************************
 
 ExtSpn:  IState=     1 X2= 1.001 Y2= 0.001 X2-Y2-1= 4.44D-16
          S2Grnd=  0.751 Ra=  0.000 Rb=  0.001 T=  0.001 S2Ext=  0.002 S2=  0.753
 ExtSpn:  IState=     2 X2= 1.001 Y2= 0.001 X2-Y2-1=-5.55D-16
          S2Grnd=  0.751 Ra=  0.000 Rb=  0.001 T=  0.001 S2Ext=  0.002 S2=  0.753
 ExtSpn:  IState=     3 X2= 1.001 Y2= 0.001 X2-Y2-1= 4.44D-16
          S2Grnd=  0.751 Ra=  0.000 Rb=  0.001 T=  0.001 S2Ext=  0.002 S2=  0.753
 Ground to excited state transition electric dipole moments (Au):
       state          X           Y           Z        Dip. S.      Osc.
         1         0.0000      0.0000      0.0000      0.0000      0.0000
         2         0.0000      0.0000      0.0000      0.0000      0.0000
         3         0.0000      0.0000      0.0000      0.0000      0.0000
 Ground to excited state transition velocity dipole moments (Au):
       state          X           Y           Z        Dip. S.      Osc.
         1         0.0000      0.0000      0.0000      0.0000      0.0000
         2         0.0000      0.0000      0.0000      0.0000      0.0000
         3         0.0000      0.0000      0.0000      0.0000      0.0000
 Ground to excited state transition magnetic dipole moments (Au):
       state          X           Y           Z
         1         0.0000      0.0000      0.0000
         2         0.0000      0.0000      0.0000
         3         0.0000      0.0000      0.0000
 <0|del|b> * <b|rxdel|0> + <0|del|b> * <b|delr+rdel|0>
 Rotatory Strengths (R) in cgs (10**-40 erg-esu-cm/Gauss)
       state          XX          YY          ZZ    R(velocity)
         1         0.0000      0.0000      0.0000      0.0000
 Total R(velocity) tensor for State=          1
                 1             2             3 
      1   0.000000D+00  0.000000D+00  0.000000D+00
      2   0.000000D+00  0.000000D+00  0.000000D+00
      3   0.000000D+00  0.000000D+00  0.000000D+00
 R(velocity) tensor in inp. orien. for State=          1
                 1             2             3 
      1   0.000000D+00  0.000000D+00  0.000000D+00
      2   0.000000D+00  0.000000D+00  0.000000D+00
      3   0.000000D+00  0.000000D+00  0.000000D+00
         2         0.0000      0.0000      0.0000      0.0000
 Total R(velocity) tensor for State=          2
                 1             2             3 
      1   0.000000D+00  0.000000D+00  0.000000D+00
      2   0.000000D+00  0.000000D+00  0.000000D+00
      3   0.000000D+00  0.000000D+00  0.000000D+00
 R(velocity) tensor in inp. orien. for State=          2
                 1             2             3 
      1   0.000000D+00  0.000000D+00  0.000000D+00
      2   0.000000D+00  0.000000D+00  0.000000D+00
      3   0.000000D+00  0.000000D+00  0.000000D+00
         3         0.0000      0.0000      0.0000      0.0000
 Total R(velocity) tensor for State=          3
                 1             2             3 
      1   0.000000D+00  0.000000D+00  0.000000D+00
      2   0.000000D+00  0.000000D+00  0.000000D+00
      3   0.000000D+00  0.000000D+00  0.000000D+00
 R(velocity) tensor in inp. orien. for State=          3
                 1             2             3 
      1   0.000000D+00  0.000000D+00  0.000000D+00
      2   0.000000D+00  0.000000D+00  0.000000D+00
      3   0.000000D+00  0.000000D+00  0.000000D+00
 1/2[<0|r|b>*<b|rxdel|0> + (<0|rxdel|b>*<b|r|0>)*]
 Rotatory Strengths (R) in cgs (10**-40 erg-esu-cm/Gauss)
       state          XX          YY          ZZ     R(length)     R(au)
         1         0.0000      0.0000      0.0000      0.0000      0.0000
         2         0.0000      0.0000      0.0000      0.0000      0.0000
         3         0.0000      0.0000      0.0000      0.0000      0.0000
  1/2[<0|del|b>*<b|r|0> + (<0|r|b>*<b|del|0>)*] (Au)
       state          X           Y           Z        Dip. S.   Osc.(frdel)
         1         0.0000      0.0000      0.0000      0.0000      0.0000
         2         0.0000      0.0000      0.0000      0.0000      0.0000
         3         0.0000      0.0000      0.0000      0.0000      0.0000
 Ground to excited state transition densities written to RWF  633

 Excitation energies and oscillator strengths:
 
 Excited State   1:  2.003-T2G    1.4055 eV  882.11 nm  f=0.0000  <S**2>=0.753
     14B -> 15B        0.99474
 This state for optimization and/or second-order correction.
 Copying the excited state density for this state as the 1-particle RhoCI density.
 
 Excited State   2:  2.003-T2G    1.4055 eV  882.11 nm  f=0.0000  <S**2>=0.753
     13B -> 15B        0.99474
 
 Excited State   3:  2.003-T2G    1.4055 eV  882.11 nm  f=0.0000  <S**2>=0.753
     12B -> 15B        0.99474
 SavETr:  write IOETrn=   770 NScale= 10 NData=  16 NLR=1 LETran=      62.

 **********************************************************************

            Population analysis using the SCF density.

 **********************************************************************

 Orbital symmetries:
 Alpha Orbitals:
       Occupied  (A1G) (A1G) (T1U) (T1U) (T1U) (A1G) (T1U) (T1U)
                 (T1U) (EG) (T2G) (T2G) (T2G) (EG) (A1G)
       Virtual   (T1U) (T1U) (T1U) (A1G) (T1U) (T1U) (T1U) (EG)
                 (T2G) (T2G) (T2G) (EG) (A1G) (T1U) (T1U) (T1U)
                 (EG) (T2G) (T2G) (T2G) (EG) (?A) (?A) (?A) (A2U)
                 (?A) (?A) (?A) (A1G) (T1U) (T1U) (T1U) (EG) (T2G)
                 (T2G) (T2G) (EG) (?A) (?A) (?A) (A2U) (?A) (?A)
                 (?A) (?B) (?B) (T2G) (?B) (T2G) (?B) (?B) (?B)
                 (T2G)
 Beta  Orbitals:
       Occupied  (A1G) (A1G) (T1U) (T1U) (T1U) (A1G) (T1U) (T1U)
                 (T1U) (EG) (EG) (T2G) (T2G) (T2G)
       Virtual   (A1G) (T1U) (T1U) (T1U) (A1G) (T1U) (T1U) (T1U)
                 (EG) (T2G) (T2G) (T2G) (EG) (A1G) (T1U) (T1U)
                 (T1U) (EG) (T2G) (EG) (T2G) (T2G) (?A) (?A) (?A)
                 (?A) (?A) (A2U) (?A) (A1G) (T1U) (T1U) (T1U) (EG)
                 (EG) (T2G) (T2G) (T2G) (?A) (?A) (?A) (?A) (?A)
                 (?A) (A2U) (T2G) (?B) (T2G) (?B) (?B) (?B) (?B)
                 (T2G) (?B)
 The electronic state is 2-A1G.
 Alpha  occ. eigenvalues -- -322.94990 -38.74396 -33.94748 -33.94748 -33.94748
 Alpha  occ. eigenvalues --   -4.25554  -2.74914  -2.74914  -2.74914  -0.24996
 Alpha  occ. eigenvalues --   -0.24996  -0.24996  -0.24996  -0.24996  -0.19284
 Alpha virt. eigenvalues --   -0.01280  -0.01280  -0.01280   0.06698   0.18321
 Alpha virt. eigenvalues --    0.18321   0.18321   0.43213   0.43213   0.43213
 Alpha virt. eigenvalues --    0.43213   0.43213   0.53870   0.94112   0.94112
 Alpha virt. eigenvalues --    0.94112   2.04381   2.04381   2.04381   2.04381
 Alpha virt. eigenvalues --    2.04381   3.60807   3.60807   3.60807   3.60807
 Alpha virt. eigenvalues --    3.60807   3.60807   3.60807   3.67744   4.24524
 Alpha virt. eigenvalues --    4.24524   4.24524   7.84778   7.84778   7.84778
 Alpha virt. eigenvalues --    7.84778   7.84778  13.63856  13.63856  13.63856
 Alpha virt. eigenvalues --   13.63856  13.63856  13.63856  13.63856  13.87242
 Alpha virt. eigenvalues --   13.87242  13.87242  13.87242  13.87242  13.87242
 Alpha virt. eigenvalues --   13.87242  13.87242  13.87242
  Beta  occ. eigenvalues -- -322.94857 -38.74407 -33.94783 -33.94783 -33.94783
  Beta  occ. eigenvalues --   -4.25477  -2.74952  -2.74952  -2.74952  -0.24670
  Beta  occ. eigenvalues --   -0.24670  -0.24670  -0.24670  -0.24670
  Beta virt. eigenvalues --   -0.11861   0.00460   0.00460   0.00460   0.07803
  Beta virt. eigenvalues --    0.20095   0.20095   0.20095   0.45191   0.45191
  Beta virt. eigenvalues --    0.45191   0.45191   0.45191   0.55437   0.95764
  Beta virt. eigenvalues --    0.95764   0.95764   2.05673   2.05673   2.05673
  Beta virt. eigenvalues --    2.05673   2.05673   3.61458   3.61458   3.61458
  Beta virt. eigenvalues --    3.61458   3.61458   3.61458   3.61458   3.68612
  Beta virt. eigenvalues --    4.25251   4.25251   4.25251   7.85012   7.85012
  Beta virt. eigenvalues --    7.85012   7.85012   7.85012  13.63842  13.63842
  Beta virt. eigenvalues --   13.63842  13.63842  13.63842  13.63842  13.63842
  Beta virt. eigenvalues --   13.87115  13.87115  13.87115  13.87115  13.87115
  Beta virt. eigenvalues --   13.87115  13.87115  13.87115  13.87115
          Condensed to atoms (all electrons):
              1
     1  Cu  29.000000
 Mulliken atomic charges:
              1
     1  Cu   0.000000
 Sum of Mulliken atomic charges =   0.00000
 Mulliken charges with hydrogens summed into heavy atoms:
              1
     1  Cu   0.000000
 Sum of Mulliken charges with hydrogens summed into heavy atoms =   0.00000
          Atomic-Atomic Spin Densities.
              1
     1  Cu   1.000000
 Mulliken atomic spin densities:
              1
     1  Cu   1.000000
 Sum of Mulliken atomic spin densities =   1.00000
 Electronic spatial extent (au):  <R**2>=             30.8685
 Charge=              0.0000 electrons
 Dipole moment (field-independent basis, Debye):
    X=              0.0000    Y=              0.0000    Z=              0.0000  Tot=              0.0000
 Quadrupole moment (field-independent basis, Debye-Ang):
   XX=            -13.8397   YY=            -13.8397   ZZ=            -13.8397
   XY=              0.0000   XZ=              0.0000   YZ=              0.0000
 Traceless Quadrupole moment (field-independent basis, Debye-Ang):
   XX=              0.0000   YY=              0.0000   ZZ=              0.0000
   XY=              0.0000   XZ=              0.0000   YZ=              0.0000
 Octapole moment (field-independent basis, Debye-Ang**2):
  XXX=              0.0000  YYY=              0.0000  ZZZ=              0.0000  XYY=              0.0000
  XXY=              0.0000  XXZ=              0.0000  XZZ=              0.0000  YZZ=              0.0000
  YYZ=              0.0000  XYZ=              0.0000
 Hexadecapole moment (field-independent basis, Debye-Ang**3):
 XXXX=            -20.7752 YYYY=            -20.7752 ZZZZ=            -20.7752 XXXY=              0.0000
 XXXZ=              0.0000 YYYX=              0.0000 YYYZ=              0.0000 ZZZX=              0.0000
 ZZZY=              0.0000 XXYY=             -6.9251 XXZZ=             -6.9251 YYZZ=             -6.9251
 XXYZ=              0.0000 YYXZ=              0.0000 ZZXY=              0.0000
 N-N= 0.000000000000D+00 E-N=-5.885020929018D+03  KE= 2.457689724608D+03
 Symmetry AG   KE= 1.557502892475D+03
 Symmetry B1G  KE= 2.814349841350D+01
 Symmetry B2G  KE= 2.814349841350D+01
 Symmetry B3G  KE= 2.814349841350D+01
 Symmetry AU   KE= 1.471545186081D-51
 Symmetry B1U  KE= 2.719187789644D+02
 Symmetry B2U  KE= 2.719187789644D+02
 Symmetry B3U  KE= 2.719187789644D+02
 1|1|UNPC-DESKTOP-634FLJ1|SP|UTD-B3LYP-FC|CC-pVTZ|Cu1(2)|22102|25-Sep-2
 020|0||# td b3lyp/cc-pvtz geom=connectivity||Title Card Required||0,2|
 Cu||Version=IA32W-G09RevA.02|State=2-A1G|HF=-1640.5845781|S2=0.750897|
 S2-1=0.|S2A=0.750001|RMSD=7.120e-010|PG=OH [O(Cu1)]||@


 THE 2ND LAW OF THERMODYNAMICS HAS THE SAME
 DEGREE OF TRUTH AS THE STATEMENT THAT IF YOU THROW
 A TUMBLERFULL OF WATER INTO THE SEA, YOU CANNOT GET
 THE SAME TUMBLERFULL OF WATER OUT AGAIN.
          - J.C. MAXWELL, LETTER TO LORD RAYLEIGH, DECEMBER 6,1870
 Job cpu time:  0 days  0 hours  4 minutes  6.0 seconds.
 File lengths (MBytes):  RWF=     13 Int=      0 D2E=      0 Chk=      2 Scr=      1
 Normal termination of Gaussian 09 at Fri Sep 25 10:17:39 2020.
