 Entering Link 1 = d:\gaussian 09w\l1.exe PID=      2452.
  
 Copyright (c) 1988,1990,1992,1993,1995,1998,2003,2009, Gaussian, Inc.
                  All Rights Reserved.
  
 This is part of the Gaussian(R) 09 program.  It is based on
 the Gaussian(R) 03 system (copyright 2003, Gaussian, Inc.),
 the Gaussian(R) 98 system (copyright 1998, Gaussian, Inc.),
 the Gaussian(R) 94 system (copyright 1995, Gaussian, Inc.),
 the Gaussian 92(TM) system (copyright 1992, Gaussian, Inc.),
 the Gaussian 90(TM) system (copyright 1990, Gaussian, Inc.),
 the Gaussian 88(TM) system (copyright 1988, Gaussian, Inc.),
 the Gaussian 86(TM) system (copyright 1986, Carnegie Mellon
 University), and the Gaussian 82(TM) system (copyright 1983,
 Carnegie Mellon University). Gaussian is a federally registered
 trademark of Gaussian, Inc.
  
 This software contains proprietary and confidential information,
 including trade secrets, belonging to Gaussian, Inc.
  
 This software is provided under written license and may be
 used, copied, transmitted, or stored only in accord with that
 written license.
  
 The following legend is applicable only to US Government
 contracts under FAR:
  
                    RESTRICTED RIGHTS LEGEND
  
 Use, reproduction and disclosure by the US Government is
 subject to restrictions as set forth in subparagraphs (a)
 and (c) of the Commercial Computer Software - Restricted
 Rights clause in FAR 52.227-19.
  
 Gaussian, Inc.
 340 Quinnipiac St., Bldg. 40, Wallingford CT 06492
  
  
 ---------------------------------------------------------------
 Warning -- This program may not be used in any manner that
 competes with the business of Gaussian, Inc. or will provide
 assistance to any competitor of Gaussian, Inc.  The licensee
 of this program is prohibited from giving any competitor of
 Gaussian, Inc. access to this program.  By using this program,
 the user acknowledges that Gaussian, Inc. is engaged in the
 business of creating and licensing software in the field of
 computational chemistry and represents and warrants to the
 licensee that it is not a competitor of Gaussian, Inc. and that
 it will not use this program in any manner prohibited above.
 ---------------------------------------------------------------
  

 Cite this work as:
 Gaussian 09, Revision A.02,
 M. J. Frisch, G. W. Trucks, H. B. Schlegel, G. E. Scuseria, 
 M. A. Robb, J. R. Cheeseman, G. Scalmani, V. Barone, B. Mennucci, 
 G. A. Petersson, H. Nakatsuji, M. Caricato, X. Li, H. P. Hratchian, 
 A. F. Izmaylov, J. Bloino, G. Zheng, J. L. Sonnenberg, M. Hada, 
 M. Ehara, K. Toyota, R. Fukuda, J. Hasegawa, M. Ishida, T. Nakajima, 
 Y. Honda, O. Kitao, H. Nakai, T. Vreven, J. A. Montgomery, Jr., 
 J. E. Peralta, F. Ogliaro, M. Bearpark, J. J. Heyd, E. Brothers, 
 K. N. Kudin, V. N. Staroverov, R. Kobayashi, J. Normand, 
 K. Raghavachari, A. Rendell, J. C. Burant, S. S. Iyengar, J. Tomasi, 
 M. Cossi, N. Rega, J. M. Millam, M. Klene, J. E. Knox, J. B. Cross, 
 V. Bakken, C. Adamo, J. Jaramillo, R. Gomperts, R. E. Stratmann, 
 O. Yazyev, A. J. Austin, R. Cammi, C. Pomelli, J. W. Ochterski, 
 R. L. Martin, K. Morokuma, V. G. Zakrzewski, G. A. Voth, 
 P. Salvador, J. J. Dannenberg, S. Dapprich, A. D. Daniels, 
 O. Farkas, J. B. Foresman, J. V. Ortiz, J. Cioslowski, 
 and D. J. Fox, Gaussian, Inc., Wallingford CT, 2009.
 
 ******************************************
 Gaussian 09:  IA32W-G09RevA.02 11-Jun-2009
                25-Sep-2020 
 ******************************************
 %chk=C:\Users\22102\Desktop\Zn.chk
 ------------------------------------
 # td b3lyp/cc-pvtz geom=connectivity
 ------------------------------------
 1/38=1,57=2/1;
 2/12=2,17=6,18=5,40=1/2;
 3/5=16,6=1,11=2,16=1,25=1,30=1,74=-5/1,2,8,3;
 4//1;
 5/5=2,38=5/2;
 8/6=1,10=1/1;
 9/42=1/14;
 6/7=2,8=2,9=2,10=2/1;
 99/5=1,9=1/99;
 -------------------
 Title Card Required
 -------------------
 Symbolic Z-matrix:
 Charge =  0 Multiplicity = 1
 Zn                   -1.02941   1.32353   0. 
 
                          Input orientation:                          
 ---------------------------------------------------------------------
 Center     Atomic      Atomic             Coordinates (Angstroms)
 Number     Number       Type             X           Y           Z
 ---------------------------------------------------------------------
      1         30           0       -1.029412    1.323529    0.000000
 ---------------------------------------------------------------------
 Stoichiometry    Zn
 Framework group  OH[O(Zn)]
 Deg. of freedom     0
 Full point group                 OH      NOp  48
 Largest Abelian subgroup         D2H     NOp   8
 Largest concise Abelian subgroup C1      NOp   1
                         Standard orientation:                         
 ---------------------------------------------------------------------
 Center     Atomic      Atomic             Coordinates (Angstroms)
 Number     Number       Type             X           Y           Z
 ---------------------------------------------------------------------
      1         30           0        0.000000    0.000000    0.000000
 ---------------------------------------------------------------------
 Standard basis: CC-pVTZ (5D, 7F)
 There are    18 symmetry adapted basis functions of AG  symmetry.
 There are     6 symmetry adapted basis functions of B1G symmetry.
 There are     6 symmetry adapted basis functions of B2G symmetry.
 There are     6 symmetry adapted basis functions of B3G symmetry.
 There are     2 symmetry adapted basis functions of AU  symmetry.
 There are    10 symmetry adapted basis functions of B1U symmetry.
 There are    10 symmetry adapted basis functions of B2U symmetry.
 There are    10 symmetry adapted basis functions of B3U symmetry.
 Integral buffers will be    262144 words long.
 Raffenetti 2 integral format.
 Two-electron integral symmetry is turned on.
    68 basis functions,   347 primitive gaussians,    84 cartesian basis functions
    15 alpha electrons       15 beta electrons
       nuclear repulsion energy         0.0000000000 Hartrees.
 NAtoms=    1 NActive=    1 NUniq=    1 SFac= 7.50D-01 NAtFMM=   80 NAOKFM=F Big=F
 One-electron integrals computed using PRISM.
 NBasis=    68 RedAO= T  NBF=    18     6     6     6     2    10    10    10
 NBsUse=    68 1.00D-06 NBFU=    18     6     6     6     2    10    10    10
 Harris functional with IExCor=  402 diagonalized for initial guess.
 ExpMin= 3.77D-02 ExpMax= 5.82D+06 ExpMxC= 6.61D+03 IAcc=3 IRadAn=         0 AccDes= 0.00D+00
 HarFok:  IExCor=  402 AccDes= 0.00D+00 IRadAn=         0 IDoV= 1
 ScaDFX=  1.000000  1.000000  1.000000  1.000000
 FoFCou: FMM=F IPFlag=           0 FMFlag=      100000 FMFlg1=           0
         NFxFlg=           0 DoJE=T BraDBF=F KetDBF=T FulRan=T
         Omega=  0.000000  0.000000  1.000000  0.000000  0.000000 ICntrl=     500 IOpCl=  0
         NMat0=    1 NMatS0=    1 NMatT0=    0 NMatD0=    1 NMtDS0=    0 NMtDT0=    0
         I1Cent=           4 NGrid=           0.
 Petite list used in FoFCou.
 Initial guess orbital symmetries:
       Occupied  (A1G) (A1G) (T1U) (T1U) (T1U) (A1G) (T1U) (T1U)
                 (T1U) (EG) (T2G) (T2G) (T2G) (EG) (A1G)
       Virtual   (T1U) (T1U) (T1U) (A1G) (T1U) (T1U) (T1U) (EG)
                 (EG) (T2G) (T2G) (T2G) (A1G) (T1U) (T1U) (T1U)
                 (EG) (T2G) (T2G) (T2G) (EG) (?A) (?A) (?A) (?A)
                 (?A) (?A) (A2U) (A1G) (T1U) (T1U) (T1U) (EG) (EG)
                 (T2G) (T2G) (T2G) (A2U) (?A) (?A) (?A) (?A) (?A)
                 (?A) (A1G) (EG) (EG) (T2G) (T2G) (T2G) (T1G) (T1G)
                 (T1G)
 The electronic state of the initial guess is 1-A1G.
 Requested convergence on RMS density matrix=1.00D-08 within 128 cycles.
 Requested convergence on MAX density matrix=1.00D-06.
 Requested convergence on             energy=1.00D-06.
 No special actions if energy rises.
 Keep R1 ints in memory in canonical form, NReq=10934882.
 EnCoef did   100 forward-backward iterations
 SCF Done:  E(RB3LYP) =  -1779.49553398     A.U. after    8 cycles
             Convg  =    0.8594D-08             -V/T =  2.0012
 ExpMin= 3.77D-02 ExpMax= 5.82D+06 ExpMxC= 6.61D+03 IAcc=3 IRadAn=         5 AccDes= 0.00D+00
 HarFok:  IExCor=  205 AccDes= 0.00D+00 IRadAn=         5 IDoV=-2
 ScaDFX=  1.000000  1.000000  1.000000  1.000000
 Range of M.O.s used for correlation:    10    68
 NBasis=    68 NAE=    15 NBE=    15 NFC=     9 NFV=     0
 NROrb=     59 NOA=     6 NOB=     6 NVA=    53 NVB=    53
 Orbital symmetries:
       Occupied  (A1G) (A1G) (T1U) (T1U) (T1U) (A1G) (T1U) (T1U)
                 (T1U) (T2G) (T2G) (T2G) (EG) (EG) (A1G)
       Virtual   (T1U) (T1U) (T1U) (A1G) (T1U) (T1U) (T1U) (EG)
                 (T2G) (T2G) (T2G) (EG) (A1G) (T1U) (T1U) (T1U)
                 (T2G) (T2G) (T2G) (EG) (EG) (?A) (?A) (A2U) (?A)
                 (?A) (?A) (?A) (A1G) (T1U) (T1U) (T1U) (EG) (T2G)
                 (EG) (T2G) (T2G) (?A) (A2U) (?A) (?A) (?A) (?A)
                 (?A) (A1G) (EG) (EG) (T2G) (T2G) (T2G) (T1G) (T1G)
                 (T1G)
    24 initial guesses have been made.
 Convergence on wavefunction:    0.001000000000000
 Iteration     1 Dimension    24 NMult    24
 CISAX will form    24 AO SS matrices at one time.
 New state      1 was old state      3
 New state      2 was old state      1
 New state      3 was old state      2
 Iteration     2 Dimension    30 NMult    30
 New state      2 was old state      3
 New state      3 was old state      2
 Iteration     3 Dimension    36 NMult    36
 Iteration     4 Dimension    42 NMult    42
 New state      1 was old state      3
 New state      2 was old state      1
 New state      3 was old state      2
 Iteration     5 Dimension    45 NMult    45
 New state      1 was old state      2
 New state      2 was old state      3
 New state      3 was old state      1
 ***********************************************************************
 Excited states from <AA,BB:AA,BB> singles matrix:
 ***********************************************************************
 
 Ground to excited state transition electric dipole moments (Au):
       state          X           Y           Z        Dip. S.      Osc.
         1         0.1495      1.9293      0.1685      3.7729      0.5196
         2         1.6419     -0.0366     -1.0373      3.7729      0.5196
         3         1.0271     -0.2223      1.6336      3.7729      0.5196
 Ground to excited state transition velocity dipole moments (Au):
       state          X           Y           Z        Dip. S.      Osc.
         1        -0.0308     -0.3970     -0.0347      0.1597      0.5155
         2        -0.3378      0.0075      0.2134      0.1597      0.5155
         3        -0.2113      0.0457     -0.3361      0.1597      0.5155
 Ground to excited state transition magnetic dipole moments (Au):
       state          X           Y           Z
         1         0.0000      0.0000      0.0000
         2         0.0000      0.0000      0.0000
         3         0.0000      0.0000      0.0000
 <0|del|b> * <b|rxdel|0> + <0|del|b> * <b|delr+rdel|0>
 Rotatory Strengths (R) in cgs (10**-40 erg-esu-cm/Gauss)
       state          XX          YY          ZZ    R(velocity)
         1         0.0000      0.0000      0.0000      0.0000
 Total R(velocity) tensor for State=          1
                 1             2             3 
      1   0.000000D+00  0.000000D+00  0.000000D+00
      2   0.000000D+00  0.000000D+00  0.000000D+00
      3   0.000000D+00  0.000000D+00  0.000000D+00
 R(velocity) tensor in inp. orien. for State=          1
                 1             2             3 
      1   0.000000D+00  0.000000D+00  0.000000D+00
      2   0.000000D+00  0.000000D+00  0.000000D+00
      3   0.000000D+00  0.000000D+00  0.000000D+00
         2         0.0000      0.0000      0.0000      0.0000
 Total R(velocity) tensor for State=          2
                 1             2             3 
      1   0.000000D+00  0.000000D+00  0.000000D+00
      2   0.000000D+00  0.000000D+00  0.000000D+00
      3   0.000000D+00  0.000000D+00  0.000000D+00
 R(velocity) tensor in inp. orien. for State=          2
                 1             2             3 
      1   0.000000D+00  0.000000D+00  0.000000D+00
      2   0.000000D+00  0.000000D+00  0.000000D+00
      3   0.000000D+00  0.000000D+00  0.000000D+00
         3         0.0000      0.0000      0.0000      0.0000
 Total R(velocity) tensor for State=          3
                 1             2             3 
      1   0.000000D+00  0.000000D+00  0.000000D+00
      2   0.000000D+00  0.000000D+00  0.000000D+00
      3   0.000000D+00  0.000000D+00  0.000000D+00
 R(velocity) tensor in inp. orien. for State=          3
                 1             2             3 
      1   0.000000D+00  0.000000D+00  0.000000D+00
      2   0.000000D+00  0.000000D+00  0.000000D+00
      3   0.000000D+00  0.000000D+00  0.000000D+00
 1/2[<0|r|b>*<b|rxdel|0> + (<0|rxdel|b>*<b|r|0>)*]
 Rotatory Strengths (R) in cgs (10**-40 erg-esu-cm/Gauss)
       state          XX          YY          ZZ     R(length)     R(au)
         1         0.0000      0.0000      0.0000      0.0000      0.0000
         2         0.0000      0.0000      0.0000      0.0000      0.0000
         3         0.0000      0.0000      0.0000      0.0000      0.0000
  1/2[<0|del|b>*<b|r|0> + (<0|r|b>*<b|del|0>)*] (Au)
       state          X           Y           Z        Dip. S.   Osc.(frdel)
         1        -0.0046     -0.7659     -0.0058      0.7763      0.5175
         2        -0.5546     -0.0003     -0.2214      0.7763      0.5175
         3        -0.2171     -0.0102     -0.5491      0.7763      0.5175
 Ground to excited state transition densities written to RWF  633

 Excitation energies and oscillator strengths:
 
 Excited State   1:      Singlet-T1U    5.6213 eV  220.56 nm  f=0.5196  <S**2>=0.000
      15 -> 17         0.69742
 This state for optimization and/or second-order correction.
 Copying the excited state density for this state as the 1-particle RhoCI density.
 
 Excited State   2:      Singlet-T1U    5.6213 eV  220.56 nm  f=0.5196  <S**2>=0.000
      15 -> 16         0.59352
      15 -> 18        -0.37496
 
 Excited State   3:      Singlet-T1U    5.6213 eV  220.56 nm  f=0.5196  <S**2>=0.000
      15 -> 16         0.37128
      15 -> 18         0.59053
 SavETr:  write IOETrn=   770 NScale= 10 NData=  16 NLR=1 LETran=      62.

 **********************************************************************

            Population analysis using the SCF density.

 **********************************************************************

 Orbital symmetries:
       Occupied  (A1G) (A1G) (T1U) (T1U) (T1U) (A1G) (T1U) (T1U)
                 (T1U) (T2G) (T2G) (T2G) (EG) (EG) (A1G)
       Virtual   (T1U) (T1U) (T1U) (A1G) (T1U) (T1U) (T1U) (EG)
                 (T2G) (T2G) (T2G) (EG) (A1G) (T1U) (T1U) (T1U)
                 (T2G) (T2G) (T2G) (EG) (EG) (?A) (?A) (A2U) (?A)
                 (?A) (?A) (?A) (A1G) (T1U) (T1U) (T1U) (EG) (T2G)
                 (EG) (T2G) (T2G) (?A) (A2U) (?A) (?A) (?A) (?A)
                 (?A) (A1G) (EG) (EG) (T2G) (T2G) (T2G) (T1G) (T1G)
                 (T1G)
 The electronic state is 1-A1G.
 Alpha  occ. eigenvalues -- -347.22102 -42.17242 -37.14977 -37.14977 -37.14977
 Alpha  occ. eigenvalues --   -4.80024  -3.18975  -3.18975  -3.18975  -0.47036
 Alpha  occ. eigenvalues --   -0.47036  -0.47036  -0.47036  -0.47036  -0.23904
 Alpha virt. eigenvalues --   -0.02625  -0.02625  -0.02625   0.05793   0.17126
 Alpha virt. eigenvalues --    0.17126   0.17126   0.54368   0.54368   0.54368
 Alpha virt. eigenvalues --    0.54368   0.54368   0.56468   0.92556   0.92556
 Alpha virt. eigenvalues --    0.92556   2.60081   2.60081   2.60081   2.60081
 Alpha virt. eigenvalues --    2.60081   4.00740   4.00740   4.00740   4.00740
 Alpha virt. eigenvalues --    4.00740   4.00740   4.00740   4.07104   4.28214
 Alpha virt. eigenvalues --    4.28214   4.28214  10.01685  10.01685  10.01685
 Alpha virt. eigenvalues --   10.01685  10.01685  15.34885  15.34885  15.34885
 Alpha virt. eigenvalues --   15.34885  15.34885  15.34885  15.34885  16.07912
 Alpha virt. eigenvalues --   16.07912  16.07912  16.07912  16.07912  16.07912
 Alpha virt. eigenvalues --   16.07912  16.07912  16.07912
          Condensed to atoms (all electrons):
              1
     1  Zn  30.000000
 Mulliken atomic charges:
              1
     1  Zn   0.000000
 Sum of Mulliken atomic charges =   0.00000
 Mulliken charges with hydrogens summed into heavy atoms:
              1
     1  Zn   0.000000
 Sum of Mulliken charges with hydrogens summed into heavy atoms =   0.00000
 Electronic spatial extent (au):  <R**2>=             33.4462
 Charge=              0.0000 electrons
 Dipole moment (field-independent basis, Debye):
    X=              0.0000    Y=              0.0000    Z=              0.0000  Tot=              0.0000
 Quadrupole moment (field-independent basis, Debye-Ang):
   XX=            -14.9954   YY=            -14.9954   ZZ=            -14.9954
   XY=              0.0000   XZ=              0.0000   YZ=              0.0000
 Traceless Quadrupole moment (field-independent basis, Debye-Ang):
   XX=              0.0000   YY=              0.0000   ZZ=              0.0000
   XY=              0.0000   XZ=              0.0000   YZ=              0.0000
 Octapole moment (field-independent basis, Debye-Ang**2):
  XXX=              0.0000  YYY=              0.0000  ZZZ=              0.0000  XYY=              0.0000
  XXY=              0.0000  XXZ=              0.0000  XZZ=              0.0000  YZZ=              0.0000
  YYZ=              0.0000  XYZ=              0.0000
 Hexadecapole moment (field-independent basis, Debye-Ang**3):
 XXXX=            -23.7647 YYYY=            -23.7647 ZZZZ=            -23.7647 XXXY=              0.0000
 XXXZ=              0.0000 YYYX=              0.0000 YYYZ=              0.0000 ZZZX=              0.0000
 ZZZY=              0.0000 XXYY=             -7.9216 XXZZ=             -7.9216 YYZZ=             -7.9216
 XXYZ=              0.0000 YYXZ=              0.0000 ZZXY=              0.0000
 N-N= 0.000000000000D+00 E-N=-4.260524225382D+03  KE= 1.777423316986D+03
 Symmetry AG   KE= 1.120641396846D+03
 Symmetry B1G  KE= 2.230487370586D+01
 Symmetry B2G  KE= 2.230487370586D+01
 Symmetry B3G  KE= 2.230487370586D+01
 Symmetry AU   KE= 1.932118274718D-60
 Symmetry B1U  KE= 1.966224330072D+02
 Symmetry B2U  KE= 1.966224330072D+02
 Symmetry B3U  KE= 1.966224330072D+02
 1|1|UNPC-DESKTOP-634FLJ1|SP|RTD-B3LYP-FC|CC-pVTZ|Zn1|22102|25-Sep-2020
 |0||# td b3lyp/cc-pvtz geom=connectivity||Title Card Required||0,1|Zn,
 0,-1.02941175,1.32352939,0.||Version=IA32W-G09RevA.02|State=1-A1G|HF=-
 1779.495534|RMSD=8.594e-009|PG=OH [O(Zn1)]||@


 MICHAEL FARADAY, ASKED BY A POLITICIAN WHAT GOOD
 HIS ELECTRICAL DISCOVERIES WERE, REPLIED 
 "AT PRESENT I DO NOT KNOW, BUT ONE DAY YOU WILL BE
 ABLE TO TAX THEM."
 Job cpu time:  0 days  0 hours  0 minutes 24.0 seconds.
 File lengths (MBytes):  RWF=      9 Int=      0 D2E=      0 Chk=      2 Scr=      1
 Normal termination of Gaussian 09 at Fri Sep 25 10:12:55 2020.
